
     Program BANDS v.7.2 starts on 21Jun2024 at 17: 4:32 

     This program is part of the open-source Quantum ESPRESSO suite
     for quantum simulation of materials; please cite
         "P. Giannozzi et al., J. Phys.:Condens. Matter 21 395502 (2009);
         "P. Giannozzi et al., J. Phys.:Condens. Matter 29 465901 (2017);
         "P. Giannozzi et al., J. Chem. Phys. 152 154105 (2020);
          URL http://www.quantum-espresso.org", 
     in publications or presentations arising from this work. More details at
     http://www.quantum-espresso.org/quote

     Parallel version (MPI & OpenMP), running on      64 processor cores
     Number of MPI processes:                64
     Threads/MPI process:                     1

     MPI processes distributed on     4 nodes
     R & G space division:  proc/nbgrp/npool/nimage =      64
     38482 MiB available memory on the printing compute node when the environment starts
 

     Reading xml data from directory:

     tmp/MoS2.save/
     file Mo.rel-pbesol-spn-rrkjus_psl.1.0.0.UPF: wavefunction(s)  4S renormalized

     IMPORTANT: XC functional enforced from input :
     Exchange-correlation= PBESOL
                           (   1   4  10   8   0   0   0)
     Any further DFT definition will be discarded
     Please, verify this is what you really want

 
     Parallelization info
     --------------------
     sticks:   dense  smooth     PW     G-vecs:    dense   smooth      PW
     Min          30      12      3                 8646     2166     325
     Max          31      13      4                 8685     2200     372
     Sum        1945     769    223               554707   140107   21847
 
     Using Slab Decomposition
 
 ----2D----2D----2D----2D----2D----2D----2D----2D----2D----2D----2D----2D
  The code is running with the 2D cutoff
  Please refer to:
  Sohier, T., Calandra, M., & Mauri, F. (2017), 
  Density functional perturbation theory for gated two-dimensional heterostructu
 res:
  Theoretical developments and application to flexural phonons in graphene.
  Physical Review B, 96(7), 75448. https://doi.org/10.1103/PhysRevB.96.075448
 ----2D----2D----2D----2D----2D----2D----2D----2D----2D----2D----2D----2D

     negative rho (up, down):  2.770E-05 0.000E+00
     Reading collected, re-writing distributed wavefunctions
     high-symmetry point:  0.0000 0.5774 0.0000   x coordinate   0.0000
     high-symmetry point: -0.3333 0.5774 0.0000   x coordinate   0.3333
     high-symmetry point:  0.0000 0.0000 0.0000   x coordinate   1.0000
     high-symmetry point:  0.3333 0.5774 0.0000   x coordinate   1.6667
     high-symmetry point:  0.0000 0.5774 0.0000   x coordinate   2.0000

     Plottable bands (eV) written to file band.dat.gnu
     Bands written to file band.dat

 **************************************************************************

                    xk=(   0.00000,   0.57735,   0.00000  )

     double point group C_s (m)    
     there are  4 classes and  2 irreducible representations
     the character table:

       E     -E    s     -s   
                              
G_3    1.00 -1.00  0.00  0.00
G_4    1.00 -1.00  0.00  0.00

     imaginary part

       E     -E    s     -s   
                              
G_3    0.00  0.00  1.00 -1.00
G_4    0.00  0.00 -1.00  1.00

     the symmetry operations in each class and the name of the first element:

     E             1
                                                                 
     -E           -1
                                                                 
     s             2
                                                                 
     -s           -2
                                                                 

     Band symmetry, C_s (m)     double point group:

     e(  1 -  2) =    -66.61124  eV     2   --> G_3            
     e(  1 -  2) =    -66.61124  eV     2   --> G_4            
     e(  3 -  4) =    -42.54601  eV     2   --> G_3            
     e(  3 -  4) =    -42.54601  eV     2   --> G_4            
     e(  5 -  6) =    -40.16169  eV     2   --> G_3            
     e(  5 -  6) =    -40.16169  eV     2   --> G_4            
     e(  7 -  8) =    -39.95071  eV     2   --> G_3            
     e(  7 -  8) =    -39.95071  eV     2   --> G_4            
     e(  9 - 10) =    -18.15679  eV     2   --> G_3            
     e(  9 - 10) =    -18.15679  eV     2   --> G_4            
     e( 11 - 12) =    -18.01890  eV     2   --> G_3            
     e( 11 - 12) =    -18.01890  eV     2   --> G_4            
     e( 13 - 14) =    -11.90650  eV     2   --> G_3            
     e( 13 - 14) =    -11.90650  eV     2   --> G_4            
     e( 15 - 16) =    -10.90130  eV     2   --> G_3            
     e( 15 - 16) =    -10.90130  eV     2   --> G_4            
     e( 17 - 18) =    -10.12224  eV     2   --> G_3            
     e( 17 - 18) =    -10.12224  eV     2   --> G_4            
     e( 19 - 20) =     -9.15584  eV     2   --> G_3            
     e( 19 - 20) =     -9.15584  eV     2   --> G_4            
     e( 21 - 22) =     -7.87957  eV     2   --> G_3            
     e( 21 - 22) =     -7.87957  eV     2   --> G_4            
     e( 23 - 24) =     -6.84674  eV     2   --> G_3            
     e( 23 - 24) =     -6.84674  eV     2   --> G_4            
     e( 25 - 26) =     -6.60710  eV     2   --> G_3            
     e( 25 - 26) =     -6.60710  eV     2   --> G_4            
     e( 27 - 28) =     -3.56435  eV     2   --> G_3            
     e( 27 - 28) =     -3.56435  eV     2   --> G_4            
     e( 29 - 30) =     -3.04839  eV     2   --> G_3            
     e( 29 - 30) =     -3.04839  eV     2   --> G_4            
     e( 31 - 32) =     -2.00892  eV     2   --> G_3            
     e( 31 - 32) =     -2.00892  eV     2   --> G_4            
     e( 33 - 34) =     -1.48677  eV     2   --> G_3            
     e( 33 - 34) =     -1.48677  eV     2   --> G_4            
     e( 35 - 36) =      0.20719  eV     2   --> G_3            
     e( 35 - 36) =      0.20719  eV     2   --> G_4            
     e( 37 - 38) =      1.85334  eV     2   --> G_3            
     e( 37 - 38) =      1.85334  eV     2   --> G_4            
     e( 39 - 40) =      2.33721  eV     2   --> G_3            
     e( 39 - 40) =      2.33721  eV     2   --> G_4            
     e( 41 - 42) =      3.10669  eV     2   --> G_3            
     e( 41 - 42) =      3.10669  eV     2   --> G_4            
     e( 43 - 44) =      3.77680  eV     2   --> G_3            
     e( 43 - 44) =      3.77680  eV     2   --> G_4            
     e( 45 - 46) =      4.52839  eV     2   --> G_3            
     e( 45 - 46) =      4.52839  eV     2   --> G_4            
     e( 47 - 48) =      5.01929  eV     2   --> G_3            
     e( 47 - 48) =      5.01929  eV     2   --> G_4            
     e( 49 - 50) =      5.35016  eV     2   --> G_3            
     e( 49 - 50) =      5.35016  eV     2   --> G_4            
     e( 51 - 52) =      5.39445  eV     2   --> G_3            
     e( 51 - 52) =      5.39445  eV     2   --> G_4            
     e( 53 - 54) =      5.44520  eV     2   --> G_3            
     e( 53 - 54) =      5.44520  eV     2   --> G_4            
     e( 55 - 56) =      6.08023  eV     2   --> G_3            
     e( 55 - 56) =      6.08023  eV     2   --> G_4            
     e( 57 - 58) =      6.38237  eV     2   --> G_3            
     e( 57 - 58) =      6.38237  eV     2   --> G_4            
     e( 59 - 60) =      6.75593  eV     2   --> G_3            
     e( 59 - 60) =      6.75593  eV     2   --> G_4            
     e( 61 - 62) =      7.01288  eV     2   --> G_3            
     e( 61 - 62) =      7.01288  eV     2   --> G_4            
     e( 63 - 64) =      8.23292  eV     2   --> G_3            
     e( 63 - 64) =      8.23292  eV     2   --> G_4            
     e( 65 - 66) =      8.46617  eV     2   --> G_3            
     e( 65 - 66) =      8.46617  eV     2   --> G_4            
     e( 67 - 68) =      8.93169  eV     2   --> G_3            
     e( 67 - 68) =      8.93169  eV     2   --> G_4            
     e( 69 - 70) =      9.43868  eV     2   --> G_3            
     e( 69 - 70) =      9.43868  eV     2   --> G_4            
     e( 71 - 72) =      9.68314  eV     2   --> G_3            
     e( 71 - 72) =      9.68314  eV     2   --> G_4            
     e( 73 - 74) =     10.78119  eV     2   --> G_3            
     e( 73 - 74) =     10.78119  eV     2   --> G_4            
     e( 75 - 76) =     10.94366  eV     2   --> G_3            
     e( 75 - 76) =     10.94366  eV     2   --> G_4            
     e( 77 - 78) =     11.39424  eV     2   --> G_3            
     e( 77 - 78) =     11.39424  eV     2   --> G_4            
     e( 79 - 80) =     11.41376  eV     2   --> G_3            
     e( 79 - 80) =     11.41376  eV     2   --> G_4            

 **************************************************************************

 **************************************************************************

                    xk=(  -0.00667,   0.57735,   0.00000  )

     double point group C_1 (1)    
     there are  2 classes and  1 irreducible representations
     the character table:

       E     -E   
                  
G_2    1.00 -1.00

     the symmetry operations in each class and the name of the first element:

     E             1
                                                                 
     -E           -1
                                                                 

     Band symmetry, C_1 (1)     double point group:

     e(  1 -  2) =    -66.61124  eV     2   -->   2 G_2            
     e(  3 -  3) =    -42.54645  eV     1   --> G_2            
     e(  4 -  4) =    -42.54558  eV     1   --> G_2            
     e(  5 -  5) =    -40.16215  eV     1   --> G_2            
     e(  6 -  6) =    -40.16118  eV     1   --> G_2            
     e(  7 -  7) =    -39.95090  eV     1   --> G_2            
     e(  8 -  8) =    -39.95065  eV     1   --> G_2            
     e(  9 -  9) =    -18.15760  eV     1   --> G_2            
     e( 10 - 10) =    -18.15549  eV     1   --> G_2            
     e( 11 - 11) =    -18.01882  eV     1   --> G_2            
     e( 12 - 12) =    -18.01866  eV     1   --> G_2            
     e( 13 - 13) =    -11.90640  eV     1   --> G_2            
     e( 14 - 14) =    -11.90525  eV     1   --> G_2            
     e( 15 - 15) =    -10.90205  eV     1   --> G_2            
     e( 16 - 16) =    -10.90162  eV     1   --> G_2            
     e( 17 - 17) =    -10.12238  eV     1   --> G_2            
     e( 18 - 18) =    -10.12156  eV     1   --> G_2            
     e( 19 - 19) =     -9.15642  eV     1   --> G_2            
     e( 20 - 20) =     -9.15574  eV     1   --> G_2            
     e( 21 - 21) =     -7.87970  eV     1   --> G_2            
     e( 22 - 22) =     -7.87904  eV     1   --> G_2            
     e( 23 - 23) =     -6.86718  eV     1   --> G_2            
     e( 24 - 24) =     -6.83900  eV     1   --> G_2            
     e( 25 - 25) =     -6.61848  eV     1   --> G_2            
     e( 26 - 26) =     -6.58790  eV     1   --> G_2            
     e( 27 - 27) =     -3.56621  eV     1   --> G_2            
     e( 28 - 28) =     -3.56201  eV     1   --> G_2            
     e( 29 - 29) =     -3.05277  eV     1   --> G_2            
     e( 30 - 30) =     -3.04349  eV     1   --> G_2            
     e( 31 - 31) =     -2.00951  eV     1   --> G_2            
     e( 32 - 32) =     -2.00609  eV     1   --> G_2            
     e( 33 - 33) =     -1.49078  eV     1   --> G_2            
     e( 34 - 34) =     -1.48779  eV     1   --> G_2            
     e( 35 - 35) =      0.20725  eV     1   --> G_2            
     e( 36 - 36) =      0.20872  eV     1   --> G_2            
     e( 37 - 37) =      1.85663  eV     1   --> G_2            
     e( 38 - 38) =      1.85771  eV     1   --> G_2            
     e( 39 - 39) =      2.33849  eV     1   --> G_2            
     e( 40 - 40) =      2.34049  eV     1   --> G_2            
     e( 41 - 41) =      3.10692  eV     1   --> G_2            
     e( 42 - 42) =      3.10709  eV     1   --> G_2            
     e( 43 - 43) =      3.77667  eV     1   --> G_2            
     e( 44 - 44) =      3.77854  eV     1   --> G_2            
     e( 45 - 46) =      4.52887  eV     2   -->   2 G_2            
     e( 47 - 47) =      5.01767  eV     1   --> G_2            
     e( 48 - 48) =      5.02071  eV     1   --> G_2            
     e( 49 - 49) =      5.32664  eV     1   --> G_2            
     e( 50 - 50) =      5.35073  eV     1   --> G_2            
     e( 51 - 51) =      5.39149  eV     1   --> G_2            
     e( 52 - 52) =      5.41398  eV     1   --> G_2            
     e( 53 - 54) =      5.44615  eV     2   -->   2 G_2            
     e( 55 - 56) =      6.08075  eV     2   -->   2 G_2            
     e( 57 - 57) =      6.38275  eV     1   --> G_2            
     e( 58 - 58) =      6.38395  eV     1   --> G_2            
     e( 59 - 59) =      6.75647  eV     1   --> G_2            
     e( 60 - 60) =      6.75833  eV     1   --> G_2            
     e( 61 - 62) =      7.01344  eV     2   -->   2 G_2            
     e( 63 - 64) =      8.23306  eV     2   -->   2 G_2            
     e( 65 - 65) =      8.46637  eV     1   --> G_2            
     e( 66 - 66) =      8.46702  eV     1   --> G_2            
     e( 67 - 67) =      8.93221  eV     1   --> G_2            
     e( 68 - 68) =      8.93344  eV     1   --> G_2            
     e( 69 - 69) =      9.43831  eV     1   --> G_2            
     e( 70 - 70) =      9.43904  eV     1   --> G_2            
     e( 71 - 71) =      9.67757  eV     1   --> G_2            
     e( 72 - 72) =      9.68027  eV     1   --> G_2            
     e( 73 - 73) =     10.77762  eV     1   --> G_2            
     e( 74 - 74) =     10.78055  eV     1   --> G_2            
     e( 75 - 76) =     10.94403  eV     2   -->   2 G_2            
     e( 77 - 77) =     11.35300  eV     1   --> G_2            
     e( 78 - 78) =     11.36588  eV     1   --> G_2            
     e( 79 - 79) =     11.44519  eV     1   --> G_2            
     e( 80 - 80) =     11.45735  eV     1   --> G_2            

 **************************************************************************

 **************************************************************************

                    xk=(  -0.01333,   0.57735,   0.00000  )

     Band symmetry, C_1 (1)     double point group:

     e(  1 -  2) =    -66.61122  eV     2   -->   2 G_2            
     e(  3 -  3) =    -42.54691  eV     1   --> G_2            
     e(  4 -  4) =    -42.54518  eV     1   --> G_2            
     e(  5 -  5) =    -40.16256  eV     1   --> G_2            
     e(  6 -  6) =    -40.16061  eV     1   --> G_2            
     e(  7 -  7) =    -39.95124  eV     1   --> G_2            
     e(  8 -  8) =    -39.95074  eV     1   --> G_2            
     e(  9 -  9) =    -18.15793  eV     1   --> G_2            
     e( 10 - 10) =    -18.15370  eV     1   --> G_2            
     e( 11 - 11) =    -18.01844  eV     1   --> G_2            
     e( 12 - 12) =    -18.01812  eV     1   --> G_2            
     e( 13 - 13) =    -11.90494  eV     1   --> G_2            
     e( 14 - 14) =    -11.90264  eV     1   --> G_2            
     e( 15 - 15) =    -10.90384  eV     1   --> G_2            
     e( 16 - 16) =    -10.90299  eV     1   --> G_2            
     e( 17 - 17) =    -10.12200  eV     1   --> G_2            
     e( 18 - 18) =    -10.12036  eV     1   --> G_2            
     e( 19 - 19) =     -9.15748  eV     1   --> G_2            
     e( 20 - 20) =     -9.15613  eV     1   --> G_2            
     e( 21 - 21) =     -7.87943  eV     1   --> G_2            
     e( 22 - 22) =     -7.87813  eV     1   --> G_2            
     e( 23 - 23) =     -6.89669  eV     1   --> G_2            
     e( 24 - 24) =     -6.84659  eV     1   --> G_2            
     e( 25 - 25) =     -6.61939  eV     1   --> G_2            
     e( 26 - 26) =     -6.56449  eV     1   --> G_2            
     e( 27 - 27) =     -3.56761  eV     1   --> G_2            
     e( 28 - 28) =     -3.55918  eV     1   --> G_2            
     e( 29 - 29) =     -3.05663  eV     1   --> G_2            
     e( 30 - 30) =     -3.03808  eV     1   --> G_2            
     e( 31 - 31) =     -2.00790  eV     1   --> G_2            
     e( 32 - 32) =     -2.00103  eV     1   --> G_2            
     e( 33 - 33) =     -1.49979  eV     1   --> G_2            
     e( 34 - 34) =     -1.49380  eV     1   --> G_2            
     e( 35 - 35) =      0.20890  eV     1   --> G_2            
     e( 36 - 36) =      0.21182  eV     1   --> G_2            
     e( 37 - 37) =      1.86753  eV     1   --> G_2            
     e( 38 - 38) =      1.86967  eV     1   --> G_2            
     e( 39 - 39) =      2.34434  eV     1   --> G_2            
     e( 40 - 40) =      2.34832  eV     1   --> G_2            
     e( 41 - 41) =      3.10778  eV     1   --> G_2            
     e( 42 - 42) =      3.10813  eV     1   --> G_2            
     e( 43 - 43) =      3.77814  eV     1   --> G_2            
     e( 44 - 44) =      3.78189  eV     1   --> G_2            
     e( 45 - 45) =      4.53037  eV     1   --> G_2            
     e( 46 - 46) =      4.53053  eV     1   --> G_2            
     e( 47 - 47) =      5.01551  eV     1   --> G_2            
     e( 48 - 48) =      5.02194  eV     1   --> G_2            
     e( 49 - 49) =      5.29747  eV     1   --> G_2            
     e( 50 - 50) =      5.32522  eV     1   --> G_2            
     e( 51 - 51) =      5.40823  eV     1   --> G_2            
     e( 52 - 52) =      5.43230  eV     1   --> G_2            
     e( 53 - 53) =      5.44916  eV     1   --> G_2            
     e( 54 - 54) =      5.45006  eV     1   --> G_2            
     e( 55 - 56) =      6.08236  eV     2   -->   2 G_2            
     e( 57 - 57) =      6.38509  eV     1   --> G_2            
     e( 58 - 58) =      6.38741  eV     1   --> G_2            
     e( 59 - 59) =      6.75991  eV     1   --> G_2            
     e( 60 - 60) =      6.76361  eV     1   --> G_2            
     e( 61 - 62) =      7.01514  eV     2   -->   2 G_2            
     e( 63 - 64) =      8.23349  eV     2   -->   2 G_2            
     e( 65 - 65) =      8.46759  eV     1   --> G_2            
     e( 66 - 66) =      8.46888  eV     1   --> G_2            
     e( 67 - 67) =      8.93499  eV     1   --> G_2            
     e( 68 - 68) =      8.93746  eV     1   --> G_2            
     e( 69 - 69) =      9.43780  eV     1   --> G_2            
     e( 70 - 70) =      9.43929  eV     1   --> G_2            
     e( 71 - 71) =      9.66378  eV     1   --> G_2            
     e( 72 - 72) =      9.66917  eV     1   --> G_2            
     e( 73 - 73) =     10.76971  eV     1   --> G_2            
     e( 74 - 74) =     10.77545  eV     1   --> G_2            
     e( 75 - 76) =     10.94514  eV     2   -->   2 G_2            
     e( 77 - 77) =     11.31307  eV     1   --> G_2            
     e( 78 - 78) =     11.32645  eV     1   --> G_2            
     e( 79 - 79) =     11.49328  eV     1   --> G_2            
     e( 80 - 80) =     11.50533  eV     1   --> G_2            

 **************************************************************************

 **************************************************************************

                    xk=(  -0.02000,   0.57735,   0.00000  )

     Band symmetry, C_1 (1)     double point group:

     e(  1 -  2) =    -66.61120  eV     2   -->   2 G_2            
     e(  3 -  3) =    -42.54738  eV     1   --> G_2            
     e(  4 -  4) =    -42.54479  eV     1   --> G_2            
     e(  5 -  5) =    -40.16292  eV     1   --> G_2            
     e(  6 -  6) =    -40.16000  eV     1   --> G_2            
     e(  7 -  7) =    -39.95171  eV     1   --> G_2            
     e(  8 -  8) =    -39.95097  eV     1   --> G_2            
     e(  9 -  9) =    -18.15777  eV     1   --> G_2            
     e( 10 - 10) =    -18.15144  eV     1   --> G_2            
     e( 11 - 11) =    -18.01775  eV     1   --> G_2            
     e( 12 - 12) =    -18.01726  eV     1   --> G_2            
     e( 13 - 13) =    -11.90213  eV     1   --> G_2            
     e( 14 - 14) =    -11.89868  eV     1   --> G_2            
     e( 15 - 15) =    -10.90670  eV     1   --> G_2            
     e( 16 - 16) =    -10.90542  eV     1   --> G_2            
     e( 17 - 17) =    -10.12108  eV     1   --> G_2            
     e( 18 - 18) =    -10.11862  eV     1   --> G_2            
     e( 19 - 19) =     -9.15900  eV     1   --> G_2            
     e( 20 - 20) =     -9.15697  eV     1   --> G_2            
     e( 21 - 21) =     -7.87877  eV     1   --> G_2            
     e( 22 - 22) =     -7.87686  eV     1   --> G_2            
     e( 23 - 23) =     -6.93262  eV     1   --> G_2            
     e( 24 - 24) =     -6.86855  eV     1   --> G_2            
     e( 25 - 25) =     -6.61074  eV     1   --> G_2            
     e( 26 - 26) =     -6.53948  eV     1   --> G_2            
     e( 27 - 27) =     -3.56858  eV     1   --> G_2            
     e( 28 - 28) =     -3.55592  eV     1   --> G_2            
     e( 29 - 29) =     -3.05995  eV     1   --> G_2            
     e( 30 - 30) =     -3.03213  eV     1   --> G_2            
     e( 31 - 31) =     -2.00413  eV     1   --> G_2            
     e( 32 - 32) =     -1.99375  eV     1   --> G_2            
     e( 33 - 33) =     -1.51365  eV     1   --> G_2            
     e( 34 - 34) =     -1.50465  eV     1   --> G_2            
     e( 35 - 35) =      0.21211  eV     1   --> G_2            
     e( 36 - 36) =      0.21647  eV     1   --> G_2            
     e( 37 - 37) =      1.88592  eV     1   --> G_2            
     e( 38 - 38) =      1.88909  eV     1   --> G_2            
     e( 39 - 39) =      2.35474  eV     1   --> G_2            
     e( 40 - 40) =      2.36067  eV     1   --> G_2            
     e( 41 - 41) =      3.10929  eV     1   --> G_2            
     e( 42 - 42) =      3.10980  eV     1   --> G_2            
     e( 43 - 43) =      3.78117  eV     1   --> G_2            
     e( 44 - 44) =      3.78685  eV     1   --> G_2            
     e( 45 - 45) =      4.53289  eV     1   --> G_2            
     e( 46 - 46) =      4.53313  eV     1   --> G_2            
     e( 47 - 47) =      5.01210  eV     1   --> G_2            
     e( 48 - 48) =      5.02273  eV     1   --> G_2            
     e( 49 - 49) =      5.26577  eV     1   --> G_2            
     e( 50 - 50) =      5.29279  eV     1   --> G_2            
     e( 51 - 51) =      5.42548  eV     1   --> G_2            
     e( 52 - 52) =      5.44392  eV     1   --> G_2            
     e( 53 - 53) =      5.45464  eV     1   --> G_2            
     e( 54 - 54) =      5.46042  eV     1   --> G_2            
     e( 55 - 56) =      6.08504  eV     2   -->   2 G_2            
     e( 57 - 57) =      6.38931  eV     1   --> G_2            
     e( 58 - 58) =      6.39261  eV     1   --> G_2            
     e( 59 - 59) =      6.76619  eV     1   --> G_2            
     e( 60 - 60) =      6.77165  eV     1   --> G_2            
     e( 61 - 61) =      7.01798  eV     1   --> G_2            
     e( 62 - 62) =      7.01809  eV     1   --> G_2            
     e( 63 - 64) =      8.23420  eV     2   -->   2 G_2            
     e( 65 - 65) =      8.46978  eV     1   --> G_2            
     e( 66 - 66) =      8.47166  eV     1   --> G_2            
     e( 67 - 67) =      8.94002  eV     1   --> G_2            
     e( 68 - 68) =      8.94373  eV     1   --> G_2            
     e( 69 - 69) =      9.43682  eV     1   --> G_2            
     e( 70 - 70) =      9.43914  eV     1   --> G_2            
     e( 71 - 71) =      9.64242  eV     1   --> G_2            
     e( 72 - 72) =      9.65050  eV     1   --> G_2            
     e( 73 - 73) =     10.75699  eV     1   --> G_2            
     e( 74 - 74) =     10.76528  eV     1   --> G_2            
     e( 75 - 76) =     10.94683  eV     2   -->   2 G_2            
     e( 77 - 77) =     11.27836  eV     1   --> G_2            
     e( 78 - 78) =     11.29203  eV     1   --> G_2            
     e( 79 - 79) =     11.54247  eV     1   --> G_2            
     e( 80 - 80) =     11.55436  eV     1   --> G_2            

 **************************************************************************

 **************************************************************************

                    xk=(  -0.02667,   0.57735,   0.00000  )

     Band symmetry, C_1 (1)     double point group:

     e(  1 -  2) =    -66.61116  eV     2   -->   2 G_2            
     e(  3 -  3) =    -42.54786  eV     1   --> G_2            
     e(  4 -  4) =    -42.54441  eV     1   --> G_2            
     e(  5 -  5) =    -40.16322  eV     1   --> G_2            
     e(  6 -  6) =    -40.15933  eV     1   --> G_2            
     e(  7 -  7) =    -39.95231  eV     1   --> G_2            
     e(  8 -  8) =    -39.95135  eV     1   --> G_2            
     e(  9 -  9) =    -18.15713  eV     1   --> G_2            
     e( 10 - 10) =    -18.14869  eV     1   --> G_2            
     e( 11 - 11) =    -18.01675  eV     1   --> G_2            
     e( 12 - 12) =    -18.01610  eV     1   --> G_2            
     e( 13 - 13) =    -11.89796  eV     1   --> G_2            
     e( 14 - 14) =    -11.89336  eV     1   --> G_2            
     e( 15 - 15) =    -10.91060  eV     1   --> G_2            
     e( 16 - 16) =    -10.90890  eV     1   --> G_2            
     e( 17 - 17) =    -10.11964  eV     1   --> G_2            
     e( 18 - 18) =    -10.11637  eV     1   --> G_2            
     e( 19 - 19) =     -9.16094  eV     1   --> G_2            
     e( 20 - 20) =     -9.15822  eV     1   --> G_2            
     e( 21 - 21) =     -7.87777  eV     1   --> G_2            
     e( 22 - 22) =     -7.87526  eV     1   --> G_2            
     e( 23 - 23) =     -6.97340  eV     1   --> G_2            
     e( 24 - 24) =     -6.90137  eV     1   --> G_2            
     e( 25 - 25) =     -6.59596  eV     1   --> G_2            
     e( 26 - 26) =     -6.51435  eV     1   --> G_2            
     e( 27 - 27) =     -3.56920  eV     1   --> G_2            
     e( 28 - 28) =     -3.55228  eV     1   --> G_2            
     e( 29 - 29) =     -3.06267  eV     1   --> G_2            
     e( 30 - 30) =     -3.02562  eV     1   --> G_2            
     e( 31 - 31) =     -1.99826  eV     1   --> G_2            
     e( 32 - 32) =     -1.98428  eV     1   --> G_2            
     e( 33 - 33) =     -1.53215  eV     1   --> G_2            
     e( 34 - 34) =     -1.52008  eV     1   --> G_2            
     e( 35 - 35) =      0.21687  eV     1   --> G_2            
     e( 36 - 36) =      0.22266  eV     1   --> G_2            
     e( 37 - 37) =      1.91162  eV     1   --> G_2            
     e( 38 - 38) =      1.91577  eV     1   --> G_2            
     e( 39 - 39) =      2.36965  eV     1   --> G_2            
     e( 40 - 40) =      2.37747  eV     1   --> G_2            
     e( 41 - 41) =      3.11142  eV     1   --> G_2            
     e( 42 - 42) =      3.11212  eV     1   --> G_2            
     e( 43 - 43) =      3.78570  eV     1   --> G_2            
     e( 44 - 44) =      3.79337  eV     1   --> G_2            
     e( 45 - 45) =      4.53644  eV     1   --> G_2            
     e( 46 - 46) =      4.53676  eV     1   --> G_2            
     e( 47 - 47) =      5.00614  eV     1   --> G_2            
     e( 48 - 48) =      5.02238  eV     1   --> G_2            
     e( 49 - 49) =      5.23336  eV     1   --> G_2            
     e( 50 - 50) =      5.25729  eV     1   --> G_2            
     e( 51 - 51) =      5.43954  eV     1   --> G_2            
     e( 52 - 52) =      5.45054  eV     1   --> G_2            
     e( 53 - 53) =      5.46365  eV     1   --> G_2            
     e( 54 - 54) =      5.47556  eV     1   --> G_2            
     e( 55 - 55) =      6.08881  eV     1   --> G_2            
     e( 56 - 56) =      6.08892  eV     1   --> G_2            
     e( 57 - 57) =      6.39527  eV     1   --> G_2            
     e( 58 - 58) =      6.39937  eV     1   --> G_2            
     e( 59 - 59) =      6.77515  eV     1   --> G_2            
     e( 60 - 60) =      6.78228  eV     1   --> G_2            
     e( 61 - 61) =      7.02196  eV     1   --> G_2            
     e( 62 - 62) =      7.02212  eV     1   --> G_2            
     e( 63 - 63) =      8.23515  eV     1   --> G_2            
     e( 64 - 64) =      8.23526  eV     1   --> G_2            
     e( 65 - 65) =      8.47281  eV     1   --> G_2            
     e( 66 - 66) =      8.47524  eV     1   --> G_2            
     e( 67 - 67) =      8.94730  eV     1   --> G_2            
     e( 68 - 68) =      8.95224  eV     1   --> G_2            
     e( 69 - 69) =      9.43461  eV     1   --> G_2            
     e( 70 - 70) =      9.43786  eV     1   --> G_2            
     e( 71 - 71) =      9.61476  eV     1   --> G_2            
     e( 72 - 72) =      9.62550  eV     1   --> G_2            
     e( 73 - 73) =     10.73887  eV     1   --> G_2            
     e( 74 - 74) =     10.74929  eV     1   --> G_2            
     e( 75 - 76) =     10.94888  eV     2   -->   2 G_2            
     e( 77 - 77) =     11.25042  eV     1   --> G_2            
     e( 78 - 78) =     11.26407  eV     1   --> G_2            
     e( 79 - 79) =     11.59193  eV     1   --> G_2            
     e( 80 - 80) =     11.60354  eV     1   --> G_2            

 **************************************************************************

 **************************************************************************

                    xk=(  -0.03333,   0.57735,   0.00000  )

     Band symmetry, C_1 (1)     double point group:

     e(  1 -  2) =    -66.61112  eV     2   -->   2 G_2            
     e(  3 -  3) =    -42.54836  eV     1   --> G_2            
     e(  4 -  4) =    -42.54406  eV     1   --> G_2            
     e(  5 -  5) =    -40.16349  eV     1   --> G_2            
     e(  6 -  6) =    -40.15861  eV     1   --> G_2            
     e(  7 -  7) =    -39.95305  eV     1   --> G_2            
     e(  8 -  8) =    -39.95186  eV     1   --> G_2            
     e(  9 -  9) =    -18.15601  eV     1   --> G_2            
     e( 10 - 10) =    -18.14547  eV     1   --> G_2            
     e( 11 - 11) =    -18.01545  eV     1   --> G_2            
     e( 12 - 12) =    -18.01464  eV     1   --> G_2            
     e( 13 - 13) =    -11.89245  eV     1   --> G_2            
     e( 14 - 14) =    -11.88671  eV     1   --> G_2            
     e( 15 - 15) =    -10.91556  eV     1   --> G_2            
     e( 16 - 16) =    -10.91344  eV     1   --> G_2            
     e( 17 - 17) =    -10.11768  eV     1   --> G_2            
     e( 18 - 18) =    -10.11361  eV     1   --> G_2            
     e( 19 - 19) =     -9.16326  eV     1   --> G_2            
     e( 20 - 20) =     -9.15984  eV     1   --> G_2            
     e( 21 - 21) =     -7.87643  eV     1   --> G_2            
     e( 22 - 22) =     -7.87338  eV     1   --> G_2            
     e( 23 - 23) =     -7.01812  eV     1   --> G_2            
     e( 24 - 24) =     -6.94178  eV     1   --> G_2            
     e( 25 - 25) =     -6.57819  eV     1   --> G_2            
     e( 26 - 26) =     -6.48992  eV     1   --> G_2            
     e( 27 - 27) =     -3.56955  eV     1   --> G_2            
     e( 28 - 28) =     -3.54835  eV     1   --> G_2            
     e( 29 - 29) =     -3.06475  eV     1   --> G_2            
     e( 30 - 30) =     -3.01850  eV     1   --> G_2            
     e( 31 - 31) =     -1.99040  eV     1   --> G_2            
     e( 32 - 32) =     -1.97266  eV     1   --> G_2            
     e( 33 - 33) =     -1.55501  eV     1   --> G_2            
     e( 34 - 34) =     -1.53979  eV     1   --> G_2            
     e( 35 - 35) =      0.22313  eV     1   --> G_2            
     e( 36 - 36) =      0.23033  eV     1   --> G_2            
     e( 37 - 37) =      1.94436  eV     1   --> G_2            
     e( 38 - 38) =      1.94941  eV     1   --> G_2            
     e( 39 - 39) =      2.38902  eV     1   --> G_2            
     e( 40 - 40) =      2.39867  eV     1   --> G_2            
     e( 41 - 41) =      3.11420  eV     1   --> G_2            
     e( 42 - 42) =      3.11507  eV     1   --> G_2            
     e( 43 - 43) =      3.79164  eV     1   --> G_2            
     e( 44 - 44) =      3.80139  eV     1   --> G_2            
     e( 45 - 45) =      4.54101  eV     1   --> G_2            
     e( 46 - 46) =      4.54141  eV     1   --> G_2            
     e( 47 - 47) =      4.99545  eV     1   --> G_2            
     e( 48 - 48) =      5.01936  eV     1   --> G_2            
     e( 49 - 49) =      5.20278  eV     1   --> G_2            
     e( 50 - 50) =      5.22094  eV     1   --> G_2            
     e( 51 - 51) =      5.45025  eV     1   --> G_2            
     e( 52 - 52) =      5.45686  eV     1   --> G_2            
     e( 53 - 53) =      5.47623  eV     1   --> G_2            
     e( 54 - 54) =      5.49113  eV     1   --> G_2            
     e( 55 - 55) =      6.09364  eV     1   --> G_2            
     e( 56 - 56) =      6.09378  eV     1   --> G_2            
     e( 57 - 57) =      6.40278  eV     1   --> G_2            
     e( 58 - 58) =      6.40748  eV     1   --> G_2            
     e( 59 - 59) =      6.78661  eV     1   --> G_2            
     e( 60 - 60) =      6.79529  eV     1   --> G_2            
     e( 61 - 61) =      7.02708  eV     1   --> G_2            
     e( 62 - 62) =      7.02728  eV     1   --> G_2            
     e( 63 - 63) =      8.23628  eV     1   --> G_2            
     e( 64 - 64) =      8.23640  eV     1   --> G_2            
     e( 65 - 65) =      8.47653  eV     1   --> G_2            
     e( 66 - 66) =      8.47945  eV     1   --> G_2            
     e( 67 - 67) =      8.95678  eV     1   --> G_2            
     e( 68 - 68) =      8.96295  eV     1   --> G_2            
     e( 69 - 69) =      9.42969  eV     1   --> G_2            
     e( 70 - 70) =      9.43378  eV     1   --> G_2            
     e( 71 - 71) =      9.58312  eV     1   --> G_2            
     e( 72 - 72) =      9.59633  eV     1   --> G_2            
     e( 73 - 73) =     10.71490  eV     1   --> G_2            
     e( 74 - 74) =     10.72692  eV     1   --> G_2            
     e( 75 - 76) =     10.95100  eV     2   -->   2 G_2            
     e( 77 - 77) =     11.23036  eV     1   --> G_2            
     e( 78 - 78) =     11.24360  eV     1   --> G_2            
     e( 79 - 79) =     11.64098  eV     1   --> G_2            
     e( 80 - 80) =     11.64242  eV     1   --> G_2            

 **************************************************************************

 **************************************************************************

                    xk=(  -0.04000,   0.57735,   0.00000  )

     Band symmetry, C_1 (1)     double point group:

     e(  1 -  2) =    -66.61107  eV     2   -->   2 G_2            
     e(  3 -  3) =    -42.54888  eV     1   --> G_2            
     e(  4 -  4) =    -42.54372  eV     1   --> G_2            
     e(  5 -  5) =    -40.16370  eV     1   --> G_2            
     e(  6 -  6) =    -40.15784  eV     1   --> G_2            
     e(  7 -  7) =    -39.95392  eV     1   --> G_2            
     e(  8 -  8) =    -39.95252  eV     1   --> G_2            
     e(  9 -  9) =    -18.15442  eV     1   --> G_2            
     e( 10 - 10) =    -18.14179  eV     1   --> G_2            
     e( 11 - 11) =    -18.01385  eV     1   --> G_2            
     e( 12 - 12) =    -18.01289  eV     1   --> G_2            
     e( 13 - 13) =    -11.88560  eV     1   --> G_2            
     e( 14 - 14) =    -11.87871  eV     1   --> G_2            
     e( 15 - 15) =    -10.92156  eV     1   --> G_2            
     e( 16 - 16) =    -10.91903  eV     1   --> G_2            
     e( 17 - 17) =    -10.11521  eV     1   --> G_2            
     e( 18 - 18) =    -10.11035  eV     1   --> G_2            
     e( 19 - 19) =     -9.16589  eV     1   --> G_2            
     e( 20 - 20) =     -9.16177  eV     1   --> G_2            
     e( 21 - 21) =     -7.87483  eV     1   --> G_2            
     e( 22 - 22) =     -7.87127  eV     1   --> G_2            
     e( 23 - 23) =     -7.06622  eV     1   --> G_2            
     e( 24 - 24) =     -6.98768  eV     1   --> G_2            
     e( 25 - 25) =     -6.55942  eV     1   --> G_2            
     e( 26 - 26) =     -6.46661  eV     1   --> G_2            
     e( 27 - 27) =     -3.56974  eV     1   --> G_2            
     e( 28 - 28) =     -3.54427  eV     1   --> G_2            
     e( 29 - 29) =     -3.06609  eV     1   --> G_2            
     e( 30 - 30) =     -3.01074  eV     1   --> G_2            
     e( 31 - 31) =     -1.98069  eV     1   --> G_2            
     e( 32 - 32) =     -1.95898  eV     1   --> G_2            
     e( 33 - 33) =     -1.58185  eV     1   --> G_2            
     e( 34 - 34) =     -1.56334  eV     1   --> G_2            
     e( 35 - 35) =      0.23086  eV     1   --> G_2            
     e( 36 - 36) =      0.23944  eV     1   --> G_2            
     e( 37 - 37) =      1.98382  eV     1   --> G_2            
     e( 38 - 38) =      1.98970  eV     1   --> G_2            
     e( 39 - 39) =      2.41276  eV     1   --> G_2            
     e( 40 - 40) =      2.42417  eV     1   --> G_2            
     e( 41 - 41) =      3.11762  eV     1   --> G_2            
     e( 42 - 42) =      3.11867  eV     1   --> G_2            
     e( 43 - 43) =      3.79887  eV     1   --> G_2            
     e( 44 - 44) =      3.81083  eV     1   --> G_2            
     e( 45 - 45) =      4.54659  eV     1   --> G_2            
     e( 46 - 46) =      4.54706  eV     1   --> G_2            
     e( 47 - 47) =      4.97713  eV     1   --> G_2            
     e( 48 - 48) =      5.01077  eV     1   --> G_2            
     e( 49 - 49) =      5.17735  eV     1   --> G_2            
     e( 50 - 50) =      5.18713  eV     1   --> G_2            
     e( 51 - 51) =      5.45952  eV     1   --> G_2            
     e( 52 - 52) =      5.46406  eV     1   --> G_2            
     e( 53 - 53) =      5.49075  eV     1   --> G_2            
     e( 54 - 54) =      5.50635  eV     1   --> G_2            
     e( 55 - 55) =      6.09955  eV     1   --> G_2            
     e( 56 - 56) =      6.09971  eV     1   --> G_2            
     e( 57 - 57) =      6.41166  eV     1   --> G_2            
     e( 58 - 58) =      6.41676  eV     1   --> G_2            
     e( 59 - 59) =      6.80033  eV     1   --> G_2            
     e( 60 - 60) =      6.81042  eV     1   --> G_2            
     e( 61 - 61) =      7.03334  eV     1   --> G_2            
     e( 62 - 62) =      7.03358  eV     1   --> G_2            
     e( 63 - 64) =      8.23752  eV     2   -->   2 G_2            
     e( 65 - 65) =      8.48075  eV     1   --> G_2            
     e( 66 - 66) =      8.48409  eV     1   --> G_2            
     e( 67 - 67) =      8.96844  eV     1   --> G_2            
     e( 68 - 68) =      8.97581  eV     1   --> G_2            
     e( 69 - 69) =      9.41907  eV     1   --> G_2            
     e( 70 - 70) =      9.42333  eV     1   --> G_2            
     e( 71 - 71) =      9.55187  eV     1   --> G_2            
     e( 72 - 72) =      9.56669  eV     1   --> G_2            
     e( 73 - 73) =     10.68507  eV     1   --> G_2            
     e( 74 - 74) =     10.69807  eV     1   --> G_2            
     e( 75 - 76) =     10.95283  eV     2   -->   2 G_2            
     e( 77 - 77) =     11.21871  eV     1   --> G_2            
     e( 78 - 78) =     11.23108  eV     1   --> G_2            
     e( 79 - 79) =     11.55898  eV     1   --> G_2            
     e( 80 - 80) =     11.57290  eV     1   --> G_2            

 **************************************************************************

 **************************************************************************

                    xk=(  -0.04667,   0.57735,   0.00000  )

     Band symmetry, C_1 (1)     double point group:

     e(  1 -  2) =    -66.61100  eV     2   -->   2 G_2            
     e(  3 -  3) =    -42.54940  eV     1   --> G_2            
     e(  4 -  4) =    -42.54340  eV     1   --> G_2            
     e(  5 -  5) =    -40.16387  eV     1   --> G_2            
     e(  6 -  6) =    -40.15701  eV     1   --> G_2            
     e(  7 -  7) =    -39.95492  eV     1   --> G_2            
     e(  8 -  8) =    -39.95331  eV     1   --> G_2            
     e(  9 -  9) =    -18.15235  eV     1   --> G_2            
     e( 10 - 10) =    -18.13765  eV     1   --> G_2            
     e( 11 - 11) =    -18.01196  eV     1   --> G_2            
     e( 12 - 12) =    -18.01083  eV     1   --> G_2            
     e( 13 - 13) =    -11.87741  eV     1   --> G_2            
     e( 14 - 14) =    -11.86938  eV     1   --> G_2            
     e( 15 - 15) =    -10.92859  eV     1   --> G_2            
     e( 16 - 16) =    -10.92567  eV     1   --> G_2            
     e( 17 - 17) =    -10.11223  eV     1   --> G_2            
     e( 18 - 18) =    -10.10659  eV     1   --> G_2            
     e( 19 - 19) =     -9.16876  eV     1   --> G_2            
     e( 20 - 20) =     -9.16392  eV     1   --> G_2            
     e( 21 - 21) =     -7.87301  eV     1   --> G_2            
     e( 22 - 22) =     -7.86902  eV     1   --> G_2            
     e( 23 - 23) =     -7.11733  eV     1   --> G_2            
     e( 24 - 24) =     -7.03783  eV     1   --> G_2            
     e( 25 - 25) =     -6.54072  eV     1   --> G_2            
     e( 26 - 26) =     -6.44461  eV     1   --> G_2            
     e( 27 - 27) =     -3.56989  eV     1   --> G_2            
     e( 28 - 28) =     -3.54018  eV     1   --> G_2            
     e( 29 - 29) =     -3.06661  eV     1   --> G_2            
     e( 30 - 30) =     -3.00226  eV     1   --> G_2            
     e( 31 - 31) =     -1.96935  eV     1   --> G_2            
     e( 32 - 32) =     -1.94334  eV     1   --> G_2            
     e( 33 - 33) =     -1.61224  eV     1   --> G_2            
     e( 34 - 34) =     -1.59020  eV     1   --> G_2            
     e( 35 - 35) =      0.24001  eV     1   --> G_2            
     e( 36 - 36) =      0.24994  eV     1   --> G_2            
     e( 37 - 37) =      2.02963  eV     1   --> G_2            
     e( 38 - 38) =      2.03626  eV     1   --> G_2            
     e( 39 - 39) =      2.44080  eV     1   --> G_2            
     e( 40 - 40) =      2.45386  eV     1   --> G_2            
     e( 41 - 41) =      3.12169  eV     1   --> G_2            
     e( 42 - 42) =      3.12293  eV     1   --> G_2            
     e( 43 - 43) =      3.80720  eV     1   --> G_2            
     e( 44 - 44) =      3.82153  eV     1   --> G_2            
     e( 45 - 45) =      4.55319  eV     1   --> G_2            
     e( 46 - 46) =      4.55373  eV     1   --> G_2            
     e( 47 - 47) =      4.94882  eV     1   --> G_2            
     e( 48 - 48) =      4.99224  eV     1   --> G_2            
     e( 49 - 49) =      5.15994  eV     1   --> G_2            
     e( 50 - 50) =      5.16075  eV     1   --> G_2            
     e( 51 - 51) =      5.46889  eV     1   --> G_2            
     e( 52 - 52) =      5.47237  eV     1   --> G_2            
     e( 53 - 53) =      5.50597  eV     1   --> G_2            
     e( 54 - 54) =      5.52133  eV     1   --> G_2            
     e( 55 - 55) =      6.10652  eV     1   --> G_2            
     e( 56 - 56) =      6.10670  eV     1   --> G_2            
     e( 57 - 57) =      6.42172  eV     1   --> G_2            
     e( 58 - 58) =      6.42706  eV     1   --> G_2            
     e( 59 - 59) =      6.81608  eV     1   --> G_2            
     e( 60 - 60) =      6.82742  eV     1   --> G_2            
     e( 61 - 61) =      7.04072  eV     1   --> G_2            
     e( 62 - 62) =      7.04101  eV     1   --> G_2            
     e( 63 - 64) =      8.23877  eV     2   -->   2 G_2            
     e( 65 - 65) =      8.48526  eV     1   --> G_2            
     e( 66 - 66) =      8.48897  eV     1   --> G_2            
     e( 67 - 67) =      8.98220  eV     1   --> G_2            
     e( 68 - 68) =      8.99076  eV     1   --> G_2            
     e( 69 - 69) =      9.39818  eV     1   --> G_2            
     e( 70 - 70) =      9.40061  eV     1   --> G_2            
     e( 71 - 71) =      9.52769  eV     1   --> G_2            
     e( 72 - 72) =      9.54198  eV     1   --> G_2            
     e( 73 - 73) =     10.64984  eV     1   --> G_2            
     e( 74 - 74) =     10.66330  eV     1   --> G_2            
     e( 75 - 75) =     10.95382  eV     1   --> G_2            
     e( 76 - 76) =     10.95394  eV     1   --> G_2            
     e( 77 - 77) =     11.21523  eV     1   --> G_2            
     e( 78 - 78) =     11.22636  eV     1   --> G_2            
     e( 79 - 79) =     11.46514  eV     1   --> G_2            
     e( 80 - 80) =     11.47849  eV     1   --> G_2            

 **************************************************************************

 **************************************************************************

                    xk=(  -0.05333,   0.57735,   0.00000  )

     Band symmetry, C_1 (1)     double point group:

     e(  1 -  2) =    -66.61093  eV     2   -->   2 G_2            
     e(  3 -  3) =    -42.54994  eV     1   --> G_2            
     e(  4 -  4) =    -42.54310  eV     1   --> G_2            
     e(  5 -  5) =    -40.16399  eV     1   --> G_2            
     e(  6 -  6) =    -40.15614  eV     1   --> G_2            
     e(  7 -  7) =    -39.95604  eV     1   --> G_2            
     e(  8 -  8) =    -39.95425  eV     1   --> G_2            
     e(  9 -  9) =    -18.14983  eV     1   --> G_2            
     e( 10 - 10) =    -18.13306  eV     1   --> G_2            
     e( 11 - 11) =    -18.00977  eV     1   --> G_2            
     e( 12 - 12) =    -18.00849  eV     1   --> G_2            
     e( 13 - 13) =    -11.86789  eV     1   --> G_2            
     e( 14 - 14) =    -11.85873  eV     1   --> G_2            
     e( 15 - 15) =    -10.93666  eV     1   --> G_2            
     e( 16 - 16) =    -10.93335  eV     1   --> G_2            
     e( 17 - 17) =    -10.10877  eV     1   --> G_2            
     e( 18 - 18) =    -10.10237  eV     1   --> G_2            
     e( 19 - 19) =     -9.17179  eV     1   --> G_2            
     e( 20 - 20) =     -9.16622  eV     1   --> G_2            
     e( 21 - 21) =     -7.87104  eV     1   --> G_2            
     e( 22 - 22) =     -7.86667  eV     1   --> G_2            
     e( 23 - 23) =     -7.17118  eV     1   --> G_2            
     e( 24 - 24) =     -7.09148  eV     1   --> G_2            
     e( 25 - 25) =     -6.52262  eV     1   --> G_2            
     e( 26 - 26) =     -6.42400  eV     1   --> G_2            
     e( 27 - 27) =     -3.57015  eV     1   --> G_2            
     e( 28 - 28) =     -3.53626  eV     1   --> G_2            
     e( 29 - 29) =     -3.06618  eV     1   --> G_2            
     e( 30 - 30) =     -2.99302  eV     1   --> G_2            
     e( 31 - 31) =     -1.95671  eV     1   --> G_2            
     e( 32 - 32) =     -1.92594  eV     1   --> G_2            
     e( 33 - 33) =     -1.64567  eV     1   --> G_2            
     e( 34 - 34) =     -1.61970  eV     1   --> G_2            
     e( 35 - 35) =      0.25051  eV     1   --> G_2            
     e( 36 - 36) =      0.26177  eV     1   --> G_2            
     e( 37 - 37) =      2.08140  eV     1   --> G_2            
     e( 38 - 38) =      2.08870  eV     1   --> G_2            
     e( 39 - 39) =      2.47300  eV     1   --> G_2            
     e( 40 - 40) =      2.48759  eV     1   --> G_2            
     e( 41 - 41) =      3.12641  eV     1   --> G_2            
     e( 42 - 42) =      3.12784  eV     1   --> G_2            
     e( 43 - 43) =      3.81640  eV     1   --> G_2            
     e( 44 - 44) =      3.83330  eV     1   --> G_2            
     e( 45 - 45) =      4.56078  eV     1   --> G_2            
     e( 46 - 46) =      4.56140  eV     1   --> G_2            
     e( 47 - 47) =      4.91054  eV     1   --> G_2            
     e( 48 - 48) =      4.96057  eV     1   --> G_2            
     e( 49 - 49) =      5.14560  eV     1   --> G_2            
     e( 50 - 50) =      5.15121  eV     1   --> G_2            
     e( 51 - 51) =      5.47900  eV     1   --> G_2            
     e( 52 - 52) =      5.48189  eV     1   --> G_2            
     e( 53 - 53) =      5.52154  eV     1   --> G_2            
     e( 54 - 54) =      5.53630  eV     1   --> G_2            
     e( 55 - 55) =      6.11455  eV     1   --> G_2            
     e( 56 - 56) =      6.11475  eV     1   --> G_2            
     e( 57 - 57) =      6.43282  eV     1   --> G_2            
     e( 58 - 58) =      6.43825  eV     1   --> G_2            
     e( 59 - 59) =      6.83360  eV     1   --> G_2            
     e( 60 - 60) =      6.84602  eV     1   --> G_2            
     e( 61 - 61) =      7.04921  eV     1   --> G_2            
     e( 62 - 62) =      7.04956  eV     1   --> G_2            
     e( 63 - 64) =      8.23986  eV     2   -->   2 G_2            
     e( 65 - 65) =      8.48984  eV     1   --> G_2            
     e( 66 - 66) =      8.49386  eV     1   --> G_2            
     e( 67 - 67) =      8.99800  eV     1   --> G_2            
     e( 68 - 68) =      9.00770  eV     1   --> G_2            
     e( 69 - 69) =      9.36233  eV     1   --> G_2            
     e( 70 - 70) =      9.36362  eV     1   --> G_2            
     e( 71 - 71) =      9.51473  eV     1   --> G_2            
     e( 72 - 72) =      9.52640  eV     1   --> G_2            
     e( 73 - 73) =     10.61011  eV     1   --> G_2            
     e( 74 - 74) =     10.62362  eV     1   --> G_2            
     e( 75 - 75) =     10.95336  eV     1   --> G_2            
     e( 76 - 76) =     10.95372  eV     1   --> G_2            
     e( 77 - 77) =     11.21913  eV     1   --> G_2            
     e( 78 - 78) =     11.22879  eV     1   --> G_2            
     e( 79 - 79) =     11.36896  eV     1   --> G_2            
     e( 80 - 80) =     11.38162  eV     1   --> G_2            

 **************************************************************************

 **************************************************************************

                    xk=(  -0.06000,   0.57735,   0.00000  )

     Band symmetry, C_1 (1)     double point group:

     e(  1 -  2) =    -66.61085  eV     2   -->   2 G_2            
     e(  3 -  3) =    -42.55049  eV     1   --> G_2            
     e(  4 -  4) =    -42.54282  eV     1   --> G_2            
     e(  5 -  5) =    -40.16407  eV     1   --> G_2            
     e(  6 -  6) =    -40.15521  eV     1   --> G_2            
     e(  7 -  7) =    -39.95727  eV     1   --> G_2            
     e(  8 -  8) =    -39.95532  eV     1   --> G_2            
     e(  9 -  9) =    -18.14685  eV     1   --> G_2            
     e( 10 - 10) =    -18.12803  eV     1   --> G_2            
     e( 11 - 11) =    -18.00731  eV     1   --> G_2            
     e( 12 - 12) =    -18.00587  eV     1   --> G_2            
     e( 13 - 13) =    -11.85705  eV     1   --> G_2            
     e( 14 - 14) =    -11.84676  eV     1   --> G_2            
     e( 15 - 15) =    -10.94574  eV     1   --> G_2            
     e( 16 - 16) =    -10.94205  eV     1   --> G_2            
     e( 17 - 17) =    -10.10484  eV     1   --> G_2            
     e( 18 - 18) =    -10.09768  eV     1   --> G_2            
     e( 19 - 19) =     -9.17490  eV     1   --> G_2            
     e( 20 - 20) =     -9.16859  eV     1   --> G_2            
     e( 21 - 21) =     -7.86898  eV     1   --> G_2            
     e( 22 - 22) =     -7.86434  eV     1   --> G_2            
     e( 23 - 23) =     -7.22757  eV     1   --> G_2            
     e( 24 - 24) =     -7.14816  eV     1   --> G_2            
     e( 25 - 25) =     -6.50542  eV     1   --> G_2            
     e( 26 - 26) =     -6.40478  eV     1   --> G_2            
     e( 27 - 27) =     -3.57065  eV     1   --> G_2            
     e( 28 - 28) =     -3.53272  eV     1   --> G_2            
     e( 29 - 29) =     -3.06468  eV     1   --> G_2            
     e( 30 - 30) =     -2.98294  eV     1   --> G_2            
     e( 31 - 31) =     -1.94336  eV     1   --> G_2            
     e( 32 - 32) =     -1.90713  eV     1   --> G_2            
     e( 33 - 33) =     -1.68145  eV     1   --> G_2            
     e( 34 - 34) =     -1.65095  eV     1   --> G_2            
     e( 35 - 35) =      0.26232  eV     1   --> G_2            
     e( 36 - 36) =      0.27487  eV     1   --> G_2            
     e( 37 - 37) =      2.13873  eV     1   --> G_2            
     e( 38 - 38) =      2.14660  eV     1   --> G_2            
     e( 39 - 39) =      2.50923  eV     1   --> G_2            
     e( 40 - 40) =      2.52521  eV     1   --> G_2            
     e( 41 - 41) =      3.13180  eV     1   --> G_2            
     e( 42 - 42) =      3.13343  eV     1   --> G_2            
     e( 43 - 43) =      3.82612  eV     1   --> G_2            
     e( 44 - 44) =      3.84587  eV     1   --> G_2            
     e( 45 - 45) =      4.56938  eV     1   --> G_2            
     e( 46 - 46) =      4.57006  eV     1   --> G_2            
     e( 47 - 47) =      4.86450  eV     1   --> G_2            
     e( 48 - 48) =      4.91716  eV     1   --> G_2            
     e( 49 - 49) =      5.14103  eV     1   --> G_2            
     e( 50 - 50) =      5.14969  eV     1   --> G_2            
     e( 51 - 51) =      5.49012  eV     1   --> G_2            
     e( 52 - 52) =      5.49264  eV     1   --> G_2            
     e( 53 - 53) =      5.53744  eV     1   --> G_2            
     e( 54 - 54) =      5.55147  eV     1   --> G_2            
     e( 55 - 55) =      6.12362  eV     1   --> G_2            
     e( 56 - 56) =      6.12384  eV     1   --> G_2            
     e( 57 - 57) =      6.44483  eV     1   --> G_2            
     e( 58 - 58) =      6.45025  eV     1   --> G_2            
     e( 59 - 59) =      6.85265  eV     1   --> G_2            
     e( 60 - 60) =      6.86600  eV     1   --> G_2            
     e( 61 - 61) =      7.05882  eV     1   --> G_2            
     e( 62 - 62) =      7.05923  eV     1   --> G_2            
     e( 63 - 63) =      8.24053  eV     1   --> G_2            
     e( 64 - 64) =      8.24068  eV     1   --> G_2            
     e( 65 - 65) =      8.49426  eV     1   --> G_2            
     e( 66 - 66) =      8.49855  eV     1   --> G_2            
     e( 67 - 67) =      9.01572  eV     1   --> G_2            
     e( 68 - 68) =      9.02654  eV     1   --> G_2            
     e( 69 - 69) =      9.31177  eV     1   --> G_2            
     e( 70 - 70) =      9.31678  eV     1   --> G_2            
     e( 71 - 71) =      9.51052  eV     1   --> G_2            
     e( 72 - 72) =      9.51937  eV     1   --> G_2            
     e( 73 - 73) =     10.56696  eV     1   --> G_2            
     e( 74 - 74) =     10.58026  eV     1   --> G_2            
     e( 75 - 75) =     10.95028  eV     1   --> G_2            
     e( 76 - 76) =     10.95113  eV     1   --> G_2            
     e( 77 - 77) =     11.22891  eV     1   --> G_2            
     e( 78 - 78) =     11.23743  eV     1   --> G_2            
     e( 79 - 79) =     11.27282  eV     1   --> G_2            
     e( 80 - 80) =     11.28401  eV     1   --> G_2            

 **************************************************************************

 **************************************************************************

                    xk=(  -0.06667,   0.57735,   0.00000  )

     Band symmetry, C_1 (1)     double point group:

     e(  1 -  2) =    -66.61076  eV     2   -->   2 G_2            
     e(  3 -  3) =    -42.55105  eV     1   --> G_2            
     e(  4 -  4) =    -42.54255  eV     1   --> G_2            
     e(  5 -  5) =    -40.16411  eV     1   --> G_2            
     e(  6 -  6) =    -40.15423  eV     1   --> G_2            
     e(  7 -  7) =    -39.95862  eV     1   --> G_2            
     e(  8 -  8) =    -39.95652  eV     1   --> G_2            
     e(  9 -  9) =    -18.14343  eV     1   --> G_2            
     e( 10 - 10) =    -18.12258  eV     1   --> G_2            
     e( 11 - 11) =    -18.00457  eV     1   --> G_2            
     e( 12 - 12) =    -18.00298  eV     1   --> G_2            
     e( 13 - 13) =    -11.84490  eV     1   --> G_2            
     e( 14 - 14) =    -11.83349  eV     1   --> G_2            
     e( 15 - 15) =    -10.95583  eV     1   --> G_2            
     e( 16 - 16) =    -10.95177  eV     1   --> G_2            
     e( 17 - 17) =    -10.10045  eV     1   --> G_2            
     e( 18 - 18) =    -10.09256  eV     1   --> G_2            
     e( 19 - 19) =     -9.17800  eV     1   --> G_2            
     e( 20 - 20) =     -9.17093  eV     1   --> G_2            
     e( 21 - 21) =     -7.86692  eV     1   --> G_2            
     e( 22 - 22) =     -7.86210  eV     1   --> G_2            
     e( 23 - 23) =     -7.28630  eV     1   --> G_2            
     e( 24 - 24) =     -7.20753  eV     1   --> G_2            
     e( 25 - 25) =     -6.48922  eV     1   --> G_2            
     e( 26 - 26) =     -6.38690  eV     1   --> G_2            
     e( 27 - 27) =     -3.57153  eV     1   --> G_2            
     e( 28 - 28) =     -3.52978  eV     1   --> G_2            
     e( 29 - 29) =     -3.06196  eV     1   --> G_2            
     e( 30 - 30) =     -2.97196  eV     1   --> G_2            
     e( 31 - 31) =     -1.93030  eV     1   --> G_2            
     e( 32 - 32) =     -1.88772  eV     1   --> G_2            
     e( 33 - 33) =     -1.71844  eV     1   --> G_2            
     e( 34 - 34) =     -1.68259  eV     1   --> G_2            
     e( 35 - 35) =      0.27537  eV     1   --> G_2            
     e( 36 - 36) =      0.28918  eV     1   --> G_2            
     e( 37 - 37) =      2.20119  eV     1   --> G_2            
     e( 38 - 38) =      2.20954  eV     1   --> G_2            
     e( 39 - 39) =      2.54933  eV     1   --> G_2            
     e( 40 - 40) =      2.56653  eV     1   --> G_2            
     e( 41 - 41) =      3.13787  eV     1   --> G_2            
     e( 42 - 42) =      3.13971  eV     1   --> G_2            
     e( 43 - 43) =      3.83587  eV     1   --> G_2            
     e( 44 - 44) =      3.85881  eV     1   --> G_2            
     e( 45 - 45) =      4.57896  eV     1   --> G_2            
     e( 46 - 46) =      4.57970  eV     1   --> G_2            
     e( 47 - 47) =      4.81356  eV     1   --> G_2            
     e( 48 - 48) =      4.86607  eV     1   --> G_2            
     e( 49 - 49) =      5.14386  eV     1   --> G_2            
     e( 50 - 50) =      5.15349  eV     1   --> G_2            
     e( 51 - 51) =      5.50236  eV     1   --> G_2            
     e( 52 - 52) =      5.50465  eV     1   --> G_2            
     e( 53 - 53) =      5.55376  eV     1   --> G_2            
     e( 54 - 54) =      5.56704  eV     1   --> G_2            
     e( 55 - 55) =      6.13374  eV     1   --> G_2            
     e( 56 - 56) =      6.13397  eV     1   --> G_2            
     e( 57 - 57) =      6.45766  eV     1   --> G_2            
     e( 58 - 58) =      6.46299  eV     1   --> G_2            
     e( 59 - 59) =      6.87300  eV     1   --> G_2            
     e( 60 - 60) =      6.88712  eV     1   --> G_2            
     e( 61 - 61) =      7.06951  eV     1   --> G_2            
     e( 62 - 62) =      7.06999  eV     1   --> G_2            
     e( 63 - 63) =      8.24061  eV     1   --> G_2            
     e( 64 - 64) =      8.24094  eV     1   --> G_2            
     e( 65 - 65) =      8.49831  eV     1   --> G_2            
     e( 66 - 66) =      8.50283  eV     1   --> G_2            
     e( 67 - 67) =      9.03522  eV     1   --> G_2            
     e( 68 - 68) =      9.04713  eV     1   --> G_2            
     e( 69 - 69) =      9.25369  eV     1   --> G_2            
     e( 70 - 70) =      9.26150  eV     1   --> G_2            
     e( 71 - 71) =      9.51116  eV     1   --> G_2            
     e( 72 - 72) =      9.51787  eV     1   --> G_2            
     e( 73 - 73) =     10.52151  eV     1   --> G_2            
     e( 74 - 74) =     10.53445  eV     1   --> G_2            
     e( 75 - 75) =     10.94184  eV     1   --> G_2            
     e( 76 - 76) =     10.94373  eV     1   --> G_2            
     e( 77 - 77) =     11.17766  eV     1   --> G_2            
     e( 78 - 78) =     11.18863  eV     1   --> G_2            
     e( 79 - 79) =     11.24583  eV     1   --> G_2            
     e( 80 - 80) =     11.25129  eV     1   --> G_2            

 **************************************************************************

 **************************************************************************

                    xk=(  -0.07333,   0.57735,   0.00000  )

     Band symmetry, C_1 (1)     double point group:

     e(  1 -  2) =    -66.61066  eV     2   -->   2 G_2            
     e(  3 -  3) =    -42.55163  eV     1   --> G_2            
     e(  4 -  4) =    -42.54231  eV     1   --> G_2            
     e(  5 -  5) =    -40.16410  eV     1   --> G_2            
     e(  6 -  6) =    -40.15320  eV     1   --> G_2            
     e(  7 -  7) =    -39.96008  eV     1   --> G_2            
     e(  8 -  8) =    -39.95786  eV     1   --> G_2            
     e(  9 -  9) =    -18.13958  eV     1   --> G_2            
     e( 10 - 10) =    -18.11671  eV     1   --> G_2            
     e( 11 - 11) =    -18.00156  eV     1   --> G_2            
     e( 12 - 12) =    -17.99982  eV     1   --> G_2            
     e( 13 - 13) =    -11.83146  eV     1   --> G_2            
     e( 14 - 14) =    -11.81892  eV     1   --> G_2            
     e( 15 - 15) =    -10.96690  eV     1   --> G_2            
     e( 16 - 16) =    -10.96250  eV     1   --> G_2            
     e( 17 - 17) =    -10.09562  eV     1   --> G_2            
     e( 18 - 18) =    -10.08703  eV     1   --> G_2            
     e( 19 - 19) =     -9.18099  eV     1   --> G_2            
     e( 20 - 20) =     -9.17316  eV     1   --> G_2            
     e( 21 - 21) =     -7.86494  eV     1   --> G_2            
     e( 22 - 22) =     -7.86005  eV     1   --> G_2            
     e( 23 - 23) =     -7.34719  eV     1   --> G_2            
     e( 24 - 24) =     -7.26931  eV     1   --> G_2            
     e( 25 - 25) =     -6.47404  eV     1   --> G_2            
     e( 26 - 26) =     -6.37028  eV     1   --> G_2            
     e( 27 - 27) =     -3.57296  eV     1   --> G_2            
     e( 28 - 28) =     -3.52764  eV     1   --> G_2            
     e( 29 - 29) =     -3.05789  eV     1   --> G_2            
     e( 30 - 30) =     -2.96003  eV     1   --> G_2            
     e( 31 - 31) =     -1.91948  eV     1   --> G_2            
     e( 32 - 32) =     -1.87011  eV     1   --> G_2            
     e( 33 - 33) =     -1.75393  eV     1   --> G_2            
     e( 34 - 34) =     -1.71236  eV     1   --> G_2            
     e( 35 - 35) =      0.28959  eV     1   --> G_2            
     e( 36 - 36) =      0.30464  eV     1   --> G_2            
     e( 37 - 37) =      2.26837  eV     1   --> G_2            
     e( 38 - 38) =      2.27711  eV     1   --> G_2            
     e( 39 - 39) =      2.59309  eV     1   --> G_2            
     e( 40 - 40) =      2.61132  eV     1   --> G_2            
     e( 41 - 41) =      3.14465  eV     1   --> G_2            
     e( 42 - 42) =      3.14670  eV     1   --> G_2            
     e( 43 - 43) =      3.84497  eV     1   --> G_2            
     e( 44 - 44) =      3.87154  eV     1   --> G_2            
     e( 45 - 45) =      4.58951  eV     1   --> G_2            
     e( 46 - 46) =      4.59031  eV     1   --> G_2            
     e( 47 - 47) =      4.76032  eV     1   --> G_2            
     e( 48 - 48) =      4.81096  eV     1   --> G_2            
     e( 49 - 49) =      5.15147  eV     1   --> G_2            
     e( 50 - 50) =      5.16114  eV     1   --> G_2            
     e( 51 - 51) =      5.51578  eV     1   --> G_2            
     e( 52 - 52) =      5.51791  eV     1   --> G_2            
     e( 53 - 53) =      5.57060  eV     1   --> G_2            
     e( 54 - 54) =      5.58316  eV     1   --> G_2            
     e( 55 - 55) =      6.14489  eV     1   --> G_2            
     e( 56 - 56) =      6.14512  eV     1   --> G_2            
     e( 57 - 57) =      6.47124  eV     1   --> G_2            
     e( 58 - 58) =      6.47643  eV     1   --> G_2            
     e( 59 - 59) =      6.89446  eV     1   --> G_2            
     e( 60 - 60) =      6.90921  eV     1   --> G_2            
     e( 61 - 61) =      7.08129  eV     1   --> G_2            
     e( 62 - 62) =      7.08184  eV     1   --> G_2            
     e( 63 - 63) =      8.23975  eV     1   --> G_2            
     e( 64 - 64) =      8.24035  eV     1   --> G_2            
     e( 65 - 65) =      8.50177  eV     1   --> G_2            
     e( 66 - 66) =      8.50649  eV     1   --> G_2            
     e( 67 - 67) =      9.05630  eV     1   --> G_2            
     e( 68 - 68) =      9.06933  eV     1   --> G_2            
     e( 69 - 69) =      9.19133  eV     1   --> G_2            
     e( 70 - 70) =      9.20100  eV     1   --> G_2            
     e( 71 - 71) =      9.51431  eV     1   --> G_2            
     e( 72 - 72) =      9.51945  eV     1   --> G_2            
     e( 73 - 73) =     10.47478  eV     1   --> G_2            
     e( 74 - 74) =     10.48727  eV     1   --> G_2            
     e( 75 - 75) =     10.92064  eV     1   --> G_2            
     e( 76 - 76) =     10.92491  eV     1   --> G_2            
     e( 77 - 77) =     11.09499  eV     1   --> G_2            
     e( 78 - 78) =     11.10272  eV     1   --> G_2            
     e( 79 - 79) =     11.26520  eV     1   --> G_2            
     e( 80 - 80) =     11.26921  eV     1   --> G_2            

 **************************************************************************

 **************************************************************************

                    xk=(  -0.08000,   0.57735,   0.00000  )

     Band symmetry, C_1 (1)     double point group:

     e(  1 -  2) =    -66.61055  eV     2   -->   2 G_2            
     e(  3 -  3) =    -42.55221  eV     1   --> G_2            
     e(  4 -  4) =    -42.54208  eV     1   --> G_2            
     e(  5 -  5) =    -40.16406  eV     1   --> G_2            
     e(  6 -  6) =    -40.15212  eV     1   --> G_2            
     e(  7 -  7) =    -39.96164  eV     1   --> G_2            
     e(  8 -  8) =    -39.95932  eV     1   --> G_2            
     e(  9 -  9) =    -18.13530  eV     1   --> G_2            
     e( 10 - 10) =    -18.11044  eV     1   --> G_2            
     e( 11 - 11) =    -17.99830  eV     1   --> G_2            
     e( 12 - 12) =    -17.99640  eV     1   --> G_2            
     e( 13 - 13) =    -11.81673  eV     1   --> G_2            
     e( 14 - 14) =    -11.80308  eV     1   --> G_2            
     e( 15 - 15) =    -10.97894  eV     1   --> G_2            
     e( 16 - 16) =    -10.97420  eV     1   --> G_2            
     e( 17 - 17) =    -10.09036  eV     1   --> G_2            
     e( 18 - 18) =    -10.08109  eV     1   --> G_2            
     e( 19 - 19) =     -9.18379  eV     1   --> G_2            
     e( 20 - 20) =     -9.17518  eV     1   --> G_2            
     e( 21 - 21) =     -7.86312  eV     1   --> G_2            
     e( 22 - 22) =     -7.85832  eV     1   --> G_2            
     e( 23 - 23) =     -7.41004  eV     1   --> G_2            
     e( 24 - 24) =     -7.33330  eV     1   --> G_2            
     e( 25 - 25) =     -6.45984  eV     1   --> G_2            
     e( 26 - 26) =     -6.35481  eV     1   --> G_2            
     e( 27 - 27) =     -3.57506  eV     1   --> G_2            
     e( 28 - 28) =     -3.52655  eV     1   --> G_2            
     e( 29 - 29) =     -3.05233  eV     1   --> G_2            
     e( 30 - 30) =     -2.94709  eV     1   --> G_2            
     e( 31 - 31) =     -1.91452  eV     1   --> G_2            
     e( 32 - 32) =     -1.86307  eV     1   --> G_2            
     e( 33 - 33) =     -1.77887  eV     1   --> G_2            
     e( 34 - 34) =     -1.73636  eV     1   --> G_2            
     e( 35 - 35) =      0.30494  eV     1   --> G_2            
     e( 36 - 36) =      0.32120  eV     1   --> G_2            
     e( 37 - 37) =      2.33984  eV     1   --> G_2            
     e( 38 - 38) =      2.34888  eV     1   --> G_2            
     e( 39 - 39) =      2.64030  eV     1   --> G_2            
     e( 40 - 40) =      2.65933  eV     1   --> G_2            
     e( 41 - 41) =      3.15216  eV     1   --> G_2            
     e( 42 - 42) =      3.15444  eV     1   --> G_2            
     e( 43 - 43) =      3.85249  eV     1   --> G_2            
     e( 44 - 44) =      3.88321  eV     1   --> G_2            
     e( 45 - 45) =      4.60101  eV     1   --> G_2            
     e( 46 - 46) =      4.60188  eV     1   --> G_2            
     e( 47 - 47) =      4.70713  eV     1   --> G_2            
     e( 48 - 48) =      4.75467  eV     1   --> G_2            
     e( 49 - 49) =      5.16235  eV     1   --> G_2            
     e( 50 - 50) =      5.17172  eV     1   --> G_2            
     e( 51 - 51) =      5.53042  eV     1   --> G_2            
     e( 52 - 52) =      5.53243  eV     1   --> G_2            
     e( 53 - 53) =      5.58808  eV     1   --> G_2            
     e( 54 - 54) =      5.59994  eV     1   --> G_2            
     e( 55 - 55) =      6.15706  eV     1   --> G_2            
     e( 56 - 56) =      6.15729  eV     1   --> G_2            
     e( 57 - 57) =      6.48553  eV     1   --> G_2            
     e( 58 - 58) =      6.49053  eV     1   --> G_2            
     e( 59 - 59) =      6.91686  eV     1   --> G_2            
     e( 60 - 60) =      6.93212  eV     1   --> G_2            
     e( 61 - 61) =      7.09411  eV     1   --> G_2            
     e( 62 - 62) =      7.09475  eV     1   --> G_2            
     e( 63 - 63) =      8.23755  eV     1   --> G_2            
     e( 64 - 64) =      8.23852  eV     1   --> G_2            
     e( 65 - 65) =      8.50444  eV     1   --> G_2            
     e( 66 - 66) =      8.50937  eV     1   --> G_2            
     e( 67 - 67) =      9.07806  eV     1   --> G_2            
     e( 68 - 68) =      9.09297  eV     1   --> G_2            
     e( 69 - 69) =      9.12748  eV     1   --> G_2            
     e( 70 - 70) =      9.13754  eV     1   --> G_2            
     e( 71 - 71) =      9.51869  eV     1   --> G_2            
     e( 72 - 72) =      9.52266  eV     1   --> G_2            
     e( 73 - 73) =     10.42766  eV     1   --> G_2            
     e( 74 - 74) =     10.43965  eV     1   --> G_2            
     e( 75 - 75) =     10.87202  eV     1   --> G_2            
     e( 76 - 76) =     10.88001  eV     1   --> G_2            
     e( 77 - 77) =     11.03812  eV     1   --> G_2            
     e( 78 - 78) =     11.04147  eV     1   --> G_2            
     e( 79 - 79) =     11.28779  eV     1   --> G_2            
     e( 80 - 80) =     11.29011  eV     1   --> G_2            

 **************************************************************************

 **************************************************************************

                    xk=(  -0.08667,   0.57735,   0.00000  )

     Band symmetry, C_1 (1)     double point group:

     e(  1 -  2) =    -66.61044  eV     2   -->   2 G_2            
     e(  3 -  3) =    -42.55280  eV     1   --> G_2            
     e(  4 -  4) =    -42.54188  eV     1   --> G_2            
     e(  5 -  5) =    -40.16398  eV     1   --> G_2            
     e(  6 -  6) =    -40.15099  eV     1   --> G_2            
     e(  7 -  7) =    -39.96329  eV     1   --> G_2            
     e(  8 -  8) =    -39.96090  eV     1   --> G_2            
     e(  9 -  9) =    -18.13063  eV     1   --> G_2            
     e( 10 - 10) =    -18.10378  eV     1   --> G_2            
     e( 11 - 11) =    -17.99479  eV     1   --> G_2            
     e( 12 - 12) =    -17.99274  eV     1   --> G_2            
     e( 13 - 13) =    -11.80072  eV     1   --> G_2            
     e( 14 - 14) =    -11.78597  eV     1   --> G_2            
     e( 15 - 15) =    -10.99191  eV     1   --> G_2            
     e( 16 - 16) =    -10.98686  eV     1   --> G_2            
     e( 17 - 17) =    -10.08472  eV     1   --> G_2            
     e( 18 - 18) =    -10.07480  eV     1   --> G_2            
     e( 19 - 19) =     -9.18630  eV     1   --> G_2            
     e( 20 - 20) =     -9.17691  eV     1   --> G_2            
     e( 21 - 21) =     -7.86155  eV     1   --> G_2            
     e( 22 - 22) =     -7.85705  eV     1   --> G_2            
     e( 23 - 23) =     -7.47465  eV     1   --> G_2            
     e( 24 - 24) =     -7.39928  eV     1   --> G_2            
     e( 25 - 25) =     -6.44655  eV     1   --> G_2            
     e( 26 - 26) =     -6.34040  eV     1   --> G_2            
     e( 27 - 27) =     -3.57799  eV     1   --> G_2            
     e( 28 - 28) =     -3.52670  eV     1   --> G_2            
     e( 29 - 29) =     -3.04515  eV     1   --> G_2            
     e( 30 - 30) =     -2.93310  eV     1   --> G_2            
     e( 31 - 31) =     -1.92051  eV     1   --> G_2            
     e( 32 - 32) =     -1.88197  eV     1   --> G_2            
     e( 33 - 33) =     -1.77761  eV     1   --> G_2            
     e( 34 - 34) =     -1.74920  eV     1   --> G_2            
     e( 35 - 35) =      0.32134  eV     1   --> G_2            
     e( 36 - 36) =      0.33878  eV     1   --> G_2            
     e( 37 - 37) =      2.41518  eV     1   --> G_2            
     e( 38 - 38) =      2.42444  eV     1   --> G_2            
     e( 39 - 39) =      2.69070  eV     1   --> G_2            
     e( 40 - 40) =      2.71025  eV     1   --> G_2            
     e( 41 - 41) =      3.16046  eV     1   --> G_2            
     e( 42 - 42) =      3.16297  eV     1   --> G_2            
     e( 43 - 43) =      3.85717  eV     1   --> G_2            
     e( 44 - 44) =      3.89263  eV     1   --> G_2            
     e( 45 - 45) =      4.61332  eV     1   --> G_2            
     e( 46 - 46) =      4.61436  eV     1   --> G_2            
     e( 47 - 47) =      4.65644  eV     1   --> G_2            
     e( 48 - 48) =      4.69972  eV     1   --> G_2            
     e( 49 - 49) =      5.17571  eV     1   --> G_2            
     e( 50 - 50) =      5.18467  eV     1   --> G_2            
     e( 51 - 51) =      5.54629  eV     1   --> G_2            
     e( 52 - 52) =      5.54822  eV     1   --> G_2            
     e( 53 - 53) =      5.60626  eV     1   --> G_2            
     e( 54 - 54) =      5.61748  eV     1   --> G_2            
     e( 55 - 55) =      6.17023  eV     1   --> G_2            
     e( 56 - 56) =      6.17045  eV     1   --> G_2            
     e( 57 - 57) =      6.50049  eV     1   --> G_2            
     e( 58 - 58) =      6.50529  eV     1   --> G_2            
     e( 59 - 59) =      6.94005  eV     1   --> G_2            
     e( 60 - 60) =      6.95571  eV     1   --> G_2            
     e( 61 - 61) =      7.10795  eV     1   --> G_2            
     e( 62 - 62) =      7.10869  eV     1   --> G_2            
     e( 63 - 63) =      8.23345  eV     1   --> G_2            
     e( 64 - 64) =      8.23494  eV     1   --> G_2            
     e( 65 - 65) =      8.50615  eV     1   --> G_2            
     e( 66 - 66) =      8.51129  eV     1   --> G_2            
     e( 67 - 67) =      9.05829  eV     1   --> G_2            
     e( 68 - 68) =      9.07269  eV     1   --> G_2            
     e( 69 - 69) =      9.10582  eV     1   --> G_2            
     e( 70 - 70) =      9.11803  eV     1   --> G_2            
     e( 71 - 71) =      9.52350  eV     1   --> G_2            
     e( 72 - 72) =      9.52652  eV     1   --> G_2            
     e( 73 - 73) =     10.38092  eV     1   --> G_2            
     e( 74 - 74) =     10.39239  eV     1   --> G_2            
     e( 75 - 75) =     10.79350  eV     1   --> G_2            
     e( 76 - 76) =     10.80341  eV     1   --> G_2            
     e( 77 - 77) =     11.01031  eV     1   --> G_2            
     e( 78 - 78) =     11.01106  eV     1   --> G_2            
     e( 79 - 79) =     11.31210  eV     1   --> G_2            
     e( 80 - 80) =     11.31264  eV     1   --> G_2            

 **************************************************************************

 **************************************************************************

                    xk=(  -0.09333,   0.57735,   0.00000  )

     Band symmetry, C_1 (1)     double point group:

     e(  1 -  2) =    -66.61032  eV     2   -->   2 G_2            
     e(  3 -  3) =    -42.55339  eV     1   --> G_2            
     e(  4 -  4) =    -42.54169  eV     1   --> G_2            
     e(  5 -  5) =    -40.16387  eV     1   --> G_2            
     e(  6 -  6) =    -40.14981  eV     1   --> G_2            
     e(  7 -  7) =    -39.96504  eV     1   --> G_2            
     e(  8 -  8) =    -39.96261  eV     1   --> G_2            
     e(  9 -  9) =    -18.12555  eV     1   --> G_2            
     e( 10 - 10) =    -18.09676  eV     1   --> G_2            
     e( 11 - 11) =    -17.99104  eV     1   --> G_2            
     e( 12 - 12) =    -17.98884  eV     1   --> G_2            
     e( 13 - 13) =    -11.78346  eV     1   --> G_2            
     e( 14 - 14) =    -11.76762  eV     1   --> G_2            
     e( 15 - 15) =    -11.00578  eV     1   --> G_2            
     e( 16 - 16) =    -11.00044  eV     1   --> G_2            
     e( 17 - 17) =    -10.07869  eV     1   --> G_2            
     e( 18 - 18) =    -10.06816  eV     1   --> G_2            
     e( 19 - 19) =     -9.18843  eV     1   --> G_2            
     e( 20 - 20) =     -9.17825  eV     1   --> G_2            
     e( 21 - 21) =     -7.86034  eV     1   --> G_2            
     e( 22 - 22) =     -7.85644  eV     1   --> G_2            
     e( 23 - 23) =     -7.54074  eV     1   --> G_2            
     e( 24 - 24) =     -7.46706  eV     1   --> G_2            
     e( 25 - 25) =     -6.43407  eV     1   --> G_2            
     e( 26 - 26) =     -6.32690  eV     1   --> G_2            
     e( 27 - 27) =     -3.58184  eV     1   --> G_2            
     e( 28 - 28) =     -3.52829  eV     1   --> G_2            
     e( 29 - 29) =     -3.03627  eV     1   --> G_2            
     e( 30 - 30) =     -2.91801  eV     1   --> G_2            
     e( 31 - 31) =     -1.94022  eV     1   --> G_2            
     e( 32 - 32) =     -1.91923  eV     1   --> G_2            
     e( 33 - 33) =     -1.75750  eV     1   --> G_2            
     e( 34 - 34) =     -1.74788  eV     1   --> G_2            
     e( 35 - 35) =      0.33875  eV     1   --> G_2            
     e( 36 - 36) =      0.35736  eV     1   --> G_2            
[...]
     e( 26 - 26) =     -6.53948  eV     1   --> G_2            
     e( 27 - 27) =     -3.56858  eV     1   --> G_2            
     e( 28 - 28) =     -3.55592  eV     1   --> G_2            
     e( 29 - 29) =     -3.05995  eV     1   --> G_2            
     e( 30 - 30) =     -3.03213  eV     1   --> G_2            
     e( 31 - 31) =     -2.00413  eV     1   --> G_2            
     e( 32 - 32) =     -1.99375  eV     1   --> G_2            
     e( 33 - 33) =     -1.51365  eV     1   --> G_2            
     e( 34 - 34) =     -1.50465  eV     1   --> G_2            
     e( 35 - 35) =      0.21211  eV     1   --> G_2            
     e( 36 - 36) =      0.21647  eV     1   --> G_2            
     e( 37 - 37) =      1.88592  eV     1   --> G_2            
     e( 38 - 38) =      1.88909  eV     1   --> G_2            
     e( 39 - 39) =      2.35474  eV     1   --> G_2            
     e( 40 - 40) =      2.36067  eV     1   --> G_2            
     e( 41 - 41) =      3.10929  eV     1   --> G_2            
     e( 42 - 42) =      3.10980  eV     1   --> G_2            
     e( 43 - 43) =      3.78117  eV     1   --> G_2            
     e( 44 - 44) =      3.78685  eV     1   --> G_2            
     e( 45 - 45) =      4.53289  eV     1   --> G_2            
     e( 46 - 46) =      4.53313  eV     1   --> G_2            
     e( 47 - 47) =      5.01210  eV     1   --> G_2            
     e( 48 - 48) =      5.02273  eV     1   --> G_2            
     e( 49 - 49) =      5.26577  eV     1   --> G_2            
     e( 50 - 50) =      5.29279  eV     1   --> G_2            
     e( 51 - 51) =      5.42548  eV     1   --> G_2            
     e( 52 - 52) =      5.44392  eV     1   --> G_2            
     e( 53 - 53) =      5.45464  eV     1   --> G_2            
     e( 54 - 54) =      5.46042  eV     1   --> G_2            
     e( 55 - 56) =      6.08504  eV     2   -->   2 G_2            
     e( 57 - 57) =      6.38931  eV     1   --> G_2            
     e( 58 - 58) =      6.39261  eV     1   --> G_2            
     e( 59 - 59) =      6.76619  eV     1   --> G_2            
     e( 60 - 60) =      6.77165  eV     1   --> G_2            
     e( 61 - 61) =      7.01798  eV     1   --> G_2            
     e( 62 - 62) =      7.01809  eV     1   --> G_2            
     e( 63 - 64) =      8.23420  eV     2   -->   2 G_2            
     e( 65 - 65) =      8.46978  eV     1   --> G_2            
     e( 66 - 66) =      8.47166  eV     1   --> G_2            
     e( 67 - 67) =      8.94002  eV     1   --> G_2            
     e( 68 - 68) =      8.94373  eV     1   --> G_2            
     e( 69 - 69) =      9.43682  eV     1   --> G_2            
     e( 70 - 70) =      9.43914  eV     1   --> G_2            
     e( 71 - 71) =      9.64242  eV     1   --> G_2            
     e( 72 - 72) =      9.65050  eV     1   --> G_2            
     e( 73 - 73) =     10.75699  eV     1   --> G_2            
     e( 74 - 74) =     10.76528  eV     1   --> G_2            
     e( 75 - 76) =     10.94683  eV     2   -->   2 G_2            
     e( 77 - 77) =     11.27836  eV     1   --> G_2            
     e( 78 - 78) =     11.29203  eV     1   --> G_2            
     e( 79 - 79) =     11.54247  eV     1   --> G_2            
     e( 80 - 80) =     11.55436  eV     1   --> G_2            

 **************************************************************************

 **************************************************************************

                    xk=(   0.01333,   0.57735,   0.00000  )

     Band symmetry, C_1 (1)     double point group:

     e(  1 -  2) =    -66.61122  eV     2   -->   2 G_2            
     e(  3 -  3) =    -42.54691  eV     1   --> G_2            
     e(  4 -  4) =    -42.54518  eV     1   --> G_2            
     e(  5 -  5) =    -40.16256  eV     1   --> G_2            
     e(  6 -  6) =    -40.16061  eV     1   --> G_2            
     e(  7 -  7) =    -39.95124  eV     1   --> G_2            
     e(  8 -  8) =    -39.95074  eV     1   --> G_2            
     e(  9 -  9) =    -18.15793  eV     1   --> G_2            
     e( 10 - 10) =    -18.15370  eV     1   --> G_2            
     e( 11 - 11) =    -18.01844  eV     1   --> G_2            
     e( 12 - 12) =    -18.01812  eV     1   --> G_2            
     e( 13 - 13) =    -11.90494  eV     1   --> G_2            
     e( 14 - 14) =    -11.90264  eV     1   --> G_2            
     e( 15 - 15) =    -10.90384  eV     1   --> G_2            
     e( 16 - 16) =    -10.90299  eV     1   --> G_2            
     e( 17 - 17) =    -10.12200  eV     1   --> G_2            
     e( 18 - 18) =    -10.12036  eV     1   --> G_2            
     e( 19 - 19) =     -9.15748  eV     1   --> G_2            
     e( 20 - 20) =     -9.15613  eV     1   --> G_2            
     e( 21 - 21) =     -7.87943  eV     1   --> G_2            
     e( 22 - 22) =     -7.87813  eV     1   --> G_2            
     e( 23 - 23) =     -6.89669  eV     1   --> G_2            
     e( 24 - 24) =     -6.84659  eV     1   --> G_2            
     e( 25 - 25) =     -6.61939  eV     1   --> G_2            
     e( 26 - 26) =     -6.56449  eV     1   --> G_2            
     e( 27 - 27) =     -3.56761  eV     1   --> G_2            
     e( 28 - 28) =     -3.55918  eV     1   --> G_2            
     e( 29 - 29) =     -3.05663  eV     1   --> G_2            
     e( 30 - 30) =     -3.03808  eV     1   --> G_2            
     e( 31 - 31) =     -2.00790  eV     1   --> G_2            
     e( 32 - 32) =     -2.00103  eV     1   --> G_2            
     e( 33 - 33) =     -1.49979  eV     1   --> G_2            
     e( 34 - 34) =     -1.49380  eV     1   --> G_2            
     e( 35 - 35) =      0.20890  eV     1   --> G_2            
     e( 36 - 36) =      0.21182  eV     1   --> G_2            
     e( 37 - 37) =      1.86753  eV     1   --> G_2            
     e( 38 - 38) =      1.86967  eV     1   --> G_2            
     e( 39 - 39) =      2.34434  eV     1   --> G_2            
     e( 40 - 40) =      2.34832  eV     1   --> G_2            
     e( 41 - 41) =      3.10778  eV     1   --> G_2            
     e( 42 - 42) =      3.10813  eV     1   --> G_2            
     e( 43 - 43) =      3.77814  eV     1   --> G_2            
     e( 44 - 44) =      3.78189  eV     1   --> G_2            
     e( 45 - 45) =      4.53037  eV     1   --> G_2            
     e( 46 - 46) =      4.53053  eV     1   --> G_2            
     e( 47 - 47) =      5.01551  eV     1   --> G_2            
     e( 48 - 48) =      5.02194  eV     1   --> G_2            
     e( 49 - 49) =      5.29747  eV     1   --> G_2            
     e( 50 - 50) =      5.32522  eV     1   --> G_2            
     e( 51 - 51) =      5.40823  eV     1   --> G_2            
     e( 52 - 52) =      5.43230  eV     1   --> G_2            
     e( 53 - 53) =      5.44916  eV     1   --> G_2            
     e( 54 - 54) =      5.45006  eV     1   --> G_2            
     e( 55 - 56) =      6.08236  eV     2   -->   2 G_2            
     e( 57 - 57) =      6.38509  eV     1   --> G_2            
     e( 58 - 58) =      6.38741  eV     1   --> G_2            
     e( 59 - 59) =      6.75991  eV     1   --> G_2            
     e( 60 - 60) =      6.76361  eV     1   --> G_2            
     e( 61 - 62) =      7.01514  eV     2   -->   2 G_2            
     e( 63 - 64) =      8.23349  eV     2   -->   2 G_2            
     e( 65 - 65) =      8.46759  eV     1   --> G_2            
     e( 66 - 66) =      8.46888  eV     1   --> G_2            
     e( 67 - 67) =      8.93499  eV     1   --> G_2            
     e( 68 - 68) =      8.93746  eV     1   --> G_2            
     e( 69 - 69) =      9.43780  eV     1   --> G_2            
     e( 70 - 70) =      9.43929  eV     1   --> G_2            
     e( 71 - 71) =      9.66378  eV     1   --> G_2            
     e( 72 - 72) =      9.66917  eV     1   --> G_2            
     e( 73 - 73) =     10.76971  eV     1   --> G_2            
     e( 74 - 74) =     10.77545  eV     1   --> G_2            
     e( 75 - 76) =     10.94514  eV     2   -->   2 G_2            
     e( 77 - 77) =     11.31307  eV     1   --> G_2            
     e( 78 - 78) =     11.32645  eV     1   --> G_2            
     e( 79 - 79) =     11.49328  eV     1   --> G_2            
     e( 80 - 80) =     11.50533  eV     1   --> G_2            

 **************************************************************************

 **************************************************************************

                    xk=(   0.00667,   0.57735,   0.00000  )

     Band symmetry, C_1 (1)     double point group:

     e(  1 -  2) =    -66.61124  eV     2   -->   2 G_2            
     e(  3 -  3) =    -42.54645  eV     1   --> G_2            
     e(  4 -  4) =    -42.54558  eV     1   --> G_2            
     e(  5 -  5) =    -40.16215  eV     1   --> G_2            
     e(  6 -  6) =    -40.16118  eV     1   --> G_2            
     e(  7 -  7) =    -39.95090  eV     1   --> G_2            
     e(  8 -  8) =    -39.95065  eV     1   --> G_2            
     e(  9 -  9) =    -18.15760  eV     1   --> G_2            
     e( 10 - 10) =    -18.15549  eV     1   --> G_2            
     e( 11 - 11) =    -18.01882  eV     1   --> G_2            
     e( 12 - 12) =    -18.01866  eV     1   --> G_2            
     e( 13 - 13) =    -11.90640  eV     1   --> G_2            
     e( 14 - 14) =    -11.90525  eV     1   --> G_2            
     e( 15 - 15) =    -10.90205  eV     1   --> G_2            
     e( 16 - 16) =    -10.90162  eV     1   --> G_2            
     e( 17 - 17) =    -10.12238  eV     1   --> G_2            
     e( 18 - 18) =    -10.12156  eV     1   --> G_2            
     e( 19 - 19) =     -9.15642  eV     1   --> G_2            
     e( 20 - 20) =     -9.15574  eV     1   --> G_2            
     e( 21 - 21) =     -7.87970  eV     1   --> G_2            
     e( 22 - 22) =     -7.87904  eV     1   --> G_2            
     e( 23 - 23) =     -6.86718  eV     1   --> G_2            
     e( 24 - 24) =     -6.83900  eV     1   --> G_2            
     e( 25 - 25) =     -6.61848  eV     1   --> G_2            
     e( 26 - 26) =     -6.58790  eV     1   --> G_2            
     e( 27 - 27) =     -3.56621  eV     1   --> G_2            
     e( 28 - 28) =     -3.56201  eV     1   --> G_2            
     e( 29 - 29) =     -3.05277  eV     1   --> G_2            
     e( 30 - 30) =     -3.04349  eV     1   --> G_2            
     e( 31 - 31) =     -2.00951  eV     1   --> G_2            
     e( 32 - 32) =     -2.00609  eV     1   --> G_2            
     e( 33 - 33) =     -1.49078  eV     1   --> G_2            
     e( 34 - 34) =     -1.48779  eV     1   --> G_2            
     e( 35 - 35) =      0.20725  eV     1   --> G_2            
     e( 36 - 36) =      0.20872  eV     1   --> G_2            
     e( 37 - 37) =      1.85663  eV     1   --> G_2            
     e( 38 - 38) =      1.85771  eV     1   --> G_2            
     e( 39 - 39) =      2.33849  eV     1   --> G_2            
     e( 40 - 40) =      2.34049  eV     1   --> G_2            
     e( 41 - 41) =      3.10692  eV     1   --> G_2            
     e( 42 - 42) =      3.10709  eV     1   --> G_2            
     e( 43 - 43) =      3.77667  eV     1   --> G_2            
     e( 44 - 44) =      3.77854  eV     1   --> G_2            
     e( 45 - 46) =      4.52887  eV     2   -->   2 G_2            
     e( 47 - 47) =      5.01767  eV     1   --> G_2            
     e( 48 - 48) =      5.02071  eV     1   --> G_2            
     e( 49 - 49) =      5.32664  eV     1   --> G_2            
     e( 50 - 50) =      5.35073  eV     1   --> G_2            
     e( 51 - 51) =      5.39149  eV     1   --> G_2            
     e( 52 - 52) =      5.41398  eV     1   --> G_2            
     e( 53 - 54) =      5.44615  eV     2   -->   2 G_2            
     e( 55 - 56) =      6.08075  eV     2   -->   2 G_2            
     e( 57 - 57) =      6.38275  eV     1   --> G_2            
     e( 58 - 58) =      6.38395  eV     1   --> G_2            
     e( 59 - 59) =      6.75647  eV     1   --> G_2            
     e( 60 - 60) =      6.75833  eV     1   --> G_2            
     e( 61 - 62) =      7.01344  eV     2   -->   2 G_2            
     e( 63 - 64) =      8.23306  eV     2   -->   2 G_2            
     e( 65 - 65) =      8.46637  eV     1   --> G_2            
     e( 66 - 66) =      8.46702  eV     1   --> G_2            
     e( 67 - 67) =      8.93221  eV     1   --> G_2            
     e( 68 - 68) =      8.93344  eV     1   --> G_2            
     e( 69 - 69) =      9.43831  eV     1   --> G_2            
     e( 70 - 70) =      9.43904  eV     1   --> G_2            
     e( 71 - 71) =      9.67757  eV     1   --> G_2            
     e( 72 - 72) =      9.68027  eV     1   --> G_2            
     e( 73 - 73) =     10.77762  eV     1   --> G_2            
     e( 74 - 74) =     10.78055  eV     1   --> G_2            
     e( 75 - 76) =     10.94403  eV     2   -->   2 G_2            
     e( 77 - 77) =     11.35300  eV     1   --> G_2            
     e( 78 - 78) =     11.36588  eV     1   --> G_2            
     e( 79 - 79) =     11.44519  eV     1   --> G_2            
     e( 80 - 80) =     11.45735  eV     1   --> G_2            

 **************************************************************************

 **************************************************************************

                    xk=(   0.00000,   0.57735,   0.00000  )

     double point group C_s (m)    
     there are  4 classes and  2 irreducible representations
     the character table:

       E     -E    s     -s   
                              
G_3    1.00 -1.00  0.00  0.00
G_4    1.00 -1.00  0.00  0.00

     imaginary part

       E     -E    s     -s   
                              
G_3    0.00  0.00  1.00 -1.00
G_4    0.00  0.00 -1.00  1.00

     the symmetry operations in each class and the name of the first element:

     E             1
                                                                 
     -E           -1
                                                                 
     s             2
                                                                 
     -s           -2
                                                                 

     Band symmetry, C_s (m)     double point group:

     e(  1 -  2) =    -66.61124  eV     2   --> G_3            
     e(  1 -  2) =    -66.61124  eV     2   --> G_4            
     e(  3 -  4) =    -42.54601  eV     2   --> G_3            
     e(  3 -  4) =    -42.54601  eV     2   --> G_4            
     e(  5 -  6) =    -40.16169  eV     2   --> G_3            
     e(  5 -  6) =    -40.16169  eV     2   --> G_4            
     e(  7 -  8) =    -39.95071  eV     2   --> G_3            
     e(  7 -  8) =    -39.95071  eV     2   --> G_4            
     e(  9 - 10) =    -18.15679  eV     2   --> G_3            
     e(  9 - 10) =    -18.15679  eV     2   --> G_4            
     e( 11 - 12) =    -18.01890  eV     2   --> G_3            
     e( 11 - 12) =    -18.01890  eV     2   --> G_4            
     e( 13 - 14) =    -11.90650  eV     2   --> G_3            
     e( 13 - 14) =    -11.90650  eV     2   --> G_4            
     e( 15 - 16) =    -10.90130  eV     2   --> G_3            
     e( 15 - 16) =    -10.90130  eV     2   --> G_4            
     e( 17 - 18) =    -10.12224  eV     2   --> G_3            
     e( 17 - 18) =    -10.12224  eV     2   --> G_4            
     e( 19 - 20) =     -9.15584  eV     2   --> G_3            
     e( 19 - 20) =     -9.15584  eV     2   --> G_4            
     e( 21 - 22) =     -7.87957  eV     2   --> G_3            
     e( 21 - 22) =     -7.87957  eV     2   --> G_4            
     e( 23 - 24) =     -6.84674  eV     2   --> G_3            
     e( 23 - 24) =     -6.84674  eV     2   --> G_4            
     e( 25 - 26) =     -6.60710  eV     2   --> G_3            
     e( 25 - 26) =     -6.60710  eV     2   --> G_4            
     e( 27 - 28) =     -3.56435  eV     2   --> G_3            
     e( 27 - 28) =     -3.56435  eV     2   --> G_4            
     e( 29 - 30) =     -3.04839  eV     2   --> G_3            
     e( 29 - 30) =     -3.04839  eV     2   --> G_4            
     e( 31 - 32) =     -2.00892  eV     2   --> G_3            
     e( 31 - 32) =     -2.00892  eV     2   --> G_4            
     e( 33 - 34) =     -1.48677  eV     2   --> G_3            
     e( 33 - 34) =     -1.48677  eV     2   --> G_4            
     e( 35 - 36) =      0.20719  eV     2   --> G_3            
     e( 35 - 36) =      0.20719  eV     2   --> G_4            
     e( 37 - 38) =      1.85334  eV     2   --> G_3            
     e( 37 - 38) =      1.85334  eV     2   --> G_4            
     e( 39 - 40) =      2.33721  eV     2   --> G_3            
     e( 39 - 40) =      2.33721  eV     2   --> G_4            
     e( 41 - 42) =      3.10669  eV     2   --> G_3            
     e( 41 - 42) =      3.10669  eV     2   --> G_4            
     e( 43 - 44) =      3.77680  eV     2   --> G_3            
     e( 43 - 44) =      3.77680  eV     2   --> G_4            
     e( 45 - 46) =      4.52839  eV     2   --> G_3            
     e( 45 - 46) =      4.52839  eV     2   --> G_4            
     e( 47 - 48) =      5.01929  eV     2   --> G_3            
     e( 47 - 48) =      5.01929  eV     2   --> G_4            
     e( 49 - 50) =      5.35016  eV     2   --> G_3            
     e( 49 - 50) =      5.35016  eV     2   --> G_4            
     e( 51 - 52) =      5.39445  eV     2   --> G_3            
     e( 51 - 52) =      5.39445  eV     2   --> G_4            
     e( 53 - 54) =      5.44520  eV     2   --> G_3            
     e( 53 - 54) =      5.44520  eV     2   --> G_4            
     e( 55 - 56) =      6.08023  eV     2   --> G_3            
     e( 55 - 56) =      6.08023  eV     2   --> G_4            
     e( 57 - 58) =      6.38237  eV     2   --> G_3            
     e( 57 - 58) =      6.38237  eV     2   --> G_4            
     e( 59 - 60) =      6.75593  eV     2   --> G_3            
     e( 59 - 60) =      6.75593  eV     2   --> G_4            
     e( 61 - 62) =      7.01288  eV     2   --> G_3            
     e( 61 - 62) =      7.01288  eV     2   --> G_4            
     e( 63 - 64) =      8.23292  eV     2   --> G_3            
     e( 63 - 64) =      8.23292  eV     2   --> G_4            
     e( 65 - 66) =      8.46617  eV     2   --> G_3            
     e( 65 - 66) =      8.46617  eV     2   --> G_4            
     e( 67 - 68) =      8.93169  eV     2   --> G_3            
     e( 67 - 68) =      8.93169  eV     2   --> G_4            
     e( 69 - 70) =      9.43868  eV     2   --> G_3            
     e( 69 - 70) =      9.43868  eV     2   --> G_4            
     e( 71 - 72) =      9.68314  eV     2   --> G_3            
     e( 71 - 72) =      9.68314  eV     2   --> G_4            
     e( 73 - 74) =     10.78119  eV     2   --> G_3            
     e( 73 - 74) =     10.78119  eV     2   --> G_4            
     e( 75 - 76) =     10.94366  eV     2   --> G_3            
     e( 75 - 76) =     10.94366  eV     2   --> G_4            
     e( 77 - 78) =     11.39424  eV     2   --> G_3            
     e( 77 - 78) =     11.39424  eV     2   --> G_4            
     e( 79 - 80) =     11.41376  eV     2   --> G_3            
     e( 79 - 80) =     11.41376  eV     2   --> G_4            

 **************************************************************************
 
     BANDS        :  15m55.57s CPU  16m38.42s WALL

 
   This run was terminated on:  17:21:10  21Jun2024            

=------------------------------------------------------------------------------=
   JOB DONE.
=------------------------------------------------------------------------------=
